
     Program PWSCF v.7.5 starts on 12Jun2026 at 15:10:38 

     This program is part of the open-source Quantum ESPRESSO suite
     for quantum simulation of materials; please cite
         "P. Giannozzi et al., J. Phys.:Condens. Matter 21 395502 (2009);
         "P. Giannozzi et al., J. Phys.:Condens. Matter 29 465901 (2017);
         "P. Giannozzi et al., J. Chem. Phys. 152 154105 (2020);
          URL http://www.quantum-espresso.org", 
     in publications or presentations arising from this work. More details at
     http://www.quantum-espresso.org/quote

     Parallel version (MPI), running on     4 processors

     MPI processes distributed on     1 nodes
     13354 MiB available memory on the printing compute node when the environment starts

     Waiting for input...
     Reading input from standard input

     Current dimensions of program PWSCF are:
     Max number of different atomic species (ntypx) = 10
     Max number of k-points (npk) =  40000
     Max angular momentum in pseudopotentials (lmaxx) =  4

     R & G space division:  proc/nbgrp/npool/nimage =       4
     Subspace diagonalization in iterative solution of the eigenvalue problem:
     a serial algorithm will be used


     Parallelization info
     --------------------
     sticks:   dense  smooth     PW     G-vecs:    dense   smooth      PW
     Min         289     289     87                 6555     6555    1068
     Max         290     290     88                 6559     6559    1071
     Sum        1159    1159    349                26229    26229    4279

     Using Slab Decomposition



     bravais-lattice index     =            2
     lattice parameter (alat)  =      10.2600  a.u.
     unit-cell volume          =     270.0114 (a.u.)^3
     number of atoms/cell      =            2
     number of atomic types    =            1
     number of electrons       =         8.00
     number of Kohn-Sham states=            4
     kinetic-energy cutoff     =      80.0000  Ry
     charge density cutoff     =     320.0000  Ry
     scf convergence threshold =      1.0E-06
     mixing beta               =       0.6000
     number of iterations used =            8  plain     mixing
     Exchange-correlation= PBE
                           (   1   4   3   4   0   0   0)

     celldm(1)=  10.260000  celldm(2)=   0.000000  celldm(3)=   0.000000
     celldm(4)=   0.000000  celldm(5)=   0.000000  celldm(6)=   0.000000

     crystal axes: (cart. coord. in units of alat)
               a(1) = (  -0.500000   0.000000   0.500000 )  
               a(2) = (   0.000000   0.500000   0.500000 )  
               a(3) = (  -0.500000   0.500000   0.000000 )  

     reciprocal axes: (cart. coord. in units 2 pi/alat)
               b(1) = ( -1.000000 -1.000000  1.000000 )  
               b(2) = (  1.000000  1.000000  1.000000 )  
               b(3) = ( -1.000000  1.000000 -1.000000 )  


     PseudoPot. # 1 for Si read from file:
     /home/guest/Rishi-Tushar/silicon-scf/pseudopotential/Si.pbe-n-rrkjus_psl.1.0.0.UPF
     MD5 check sum: 0b0bb1205258b0d07b9f9672cf965d36
     Pseudo is Ultrasoft + core correction, Zval =  4.0
     Generated using "atomic" code by A. Dal Corso  v.5.1
     Using radial grid of 1141 points,  6 beta functions with: 
                l(1) =   0
                l(2) =   0
                l(3) =   1
                l(4) =   1
                l(5) =   2
                l(6) =   2
     Q(r) pseudized with 0 coefficients 


     atomic species   valence    mass     pseudopotential
     Si                4.00    28.08600     Si( 1.00)

     48 Sym. Ops., with inversion, found (24 have fractional translation)



   Cartesian axes

     site n.     atom                  positions (alat units)
         1        Si     tau(   1) = (   0.0000000   0.0000000   0.0000000  )
         2        Si     tau(   2) = (   0.2500000   0.2500000   0.2500000  )

     number of k points=    28
                       cart. coord. in units 2pi/alat
        k(    1) = (  -0.0833333   0.0833333   0.0833333), wk =   0.0185185
        k(    2) = (  -0.2500000   0.2500000  -0.0833333), wk =   0.0555556
        k(    3) = (  -0.4166667   0.4166667  -0.2500000), wk =   0.0555556
        k(    4) = (   0.4166667  -0.4166667   0.5833333), wk =   0.0555556
        k(    5) = (   0.2500000  -0.2500000   0.4166667), wk =   0.0555556
        k(    6) = (   0.0833333  -0.0833333   0.2500000), wk =   0.0555556
        k(    7) = (  -0.0833333   0.4166667   0.0833333), wk =   0.0555556
        k(    8) = (  -0.2500000   0.5833333  -0.0833333), wk =   0.1111111
        k(    9) = (   0.5833333  -0.2500000   0.7500000), wk =   0.1111111
        k(   10) = (   0.4166667  -0.0833333   0.5833333), wk =   0.1111111
        k(   11) = (   0.2500000   0.0833333   0.4166667), wk =   0.1111111
        k(   12) = (  -0.0833333   0.7500000   0.0833333), wk =   0.0555556
        k(   13) = (   0.7500000  -0.0833333   0.9166667), wk =   0.1111111
        k(   14) = (   0.5833333   0.0833333   0.7500000), wk =   0.1111111
        k(   15) = (   0.4166667   0.2500000   0.5833333), wk =   0.1111111
        k(   16) = (  -0.0833333  -0.9166667   0.0833333), wk =   0.0555556
        k(   17) = (  -0.2500000  -0.7500000  -0.0833333), wk =   0.1111111
        k(   18) = (  -0.0833333  -0.5833333   0.0833333), wk =   0.0555556
        k(   19) = (  -0.2500000   0.2500000   0.2500000), wk =   0.0185185
        k(   20) = (  -0.4166667   0.4166667   0.0833333), wk =   0.0555556
        k(   21) = (   0.4166667  -0.4166667   0.9166667), wk =   0.0555556
        k(   22) = (   0.2500000  -0.2500000   0.7500000), wk =   0.0555556
        k(   23) = (  -0.2500000   0.5833333   0.2500000), wk =   0.0555556
        k(   24) = (   0.5833333  -0.2500000   1.0833333), wk =   0.1111111
        k(   25) = (   0.4166667  -0.0833333   0.9166667), wk =   0.1111111
        k(   26) = (  -0.2500000  -1.0833333   0.2500000), wk =   0.0555556
        k(   27) = (  -0.4166667   0.4166667   0.4166667), wk =   0.0185185
        k(   28) = (   0.4166667  -0.4166667   1.2500000), wk =   0.0555556

     Dense  grid:    26229 G-vectors     FFT dimensions: (  48,  48,  48)

     Estimated max dynamical RAM per process >      26.77 MB

     Estimated total dynamical RAM >     107.07 MB

     Initial potential from superposition of free atoms

     starting charge       7.9989, renormalised to       8.0000
     Starting wfcs are    8 randomized atomic wfcs

     total cpu time spent up to now is        0.9 secs

     Self-consistent Calculation

     iteration #  1     ecut=    80.00 Ry     beta= 0.60
     Davidson diagonalization with overlap
     ethr =  1.00E-02,  avg # of iterations =  2.0

     Threshold (ethr) on eigenvalues was too large:
     Diagonalizing with lowered threshold

     Davidson diagonalization with overlap
     ethr =  6.20E-04,  avg # of iterations =  1.4

     total cpu time spent up to now is        2.5 secs

     total energy              =     -22.83812672 Ry
     estimated scf accuracy    <       0.05372310 Ry

     iteration #  2     ecut=    80.00 Ry     beta= 0.60
     Davidson diagonalization with overlap
     ethr =  6.72E-04,  avg # of iterations =  1.0

     total cpu time spent up to now is        3.3 secs

     total energy              =     -22.83873972 Ry
     estimated scf accuracy    <       0.00617581 Ry

     iteration #  3     ecut=    80.00 Ry     beta= 0.60
     Davidson diagonalization with overlap
     ethr =  7.72E-05,  avg # of iterations =  2.1

     total cpu time spent up to now is        4.3 secs

     total energy              =     -22.83970358 Ry
     estimated scf accuracy    <       0.00014486 Ry

     iteration #  4     ecut=    80.00 Ry     beta= 0.60
     Davidson diagonalization with overlap
     ethr =  1.81E-06,  avg # of iterations =  4.4

     total cpu time spent up to now is        5.4 secs

     total energy              =     -22.83982052 Ry
     estimated scf accuracy    <       0.00002192 Ry

     iteration #  5     ecut=    80.00 Ry     beta= 0.60
     Davidson diagonalization with overlap
     ethr =  2.74E-07,  avg # of iterations =  3.3

     total cpu time spent up to now is        6.5 secs

     End of self-consistent calculation

          k =-0.0833 0.0833 0.0833 (  3260 PWs)   bands (ev):

    -5.6639   5.3531   6.0685   6.0685

          k =-0.2500 0.2500-0.0833 (  3279 PWs)   bands (ev):

    -5.1854   3.2677   4.8247   5.8584

          k =-0.4167 0.4167-0.2500 (  3261 PWs)   bands (ev):

    -4.0881   0.4920   4.3607   5.2178

          k = 0.4167-0.4167 0.5833 (  3257 PWs)   bands (ev):

    -3.3847  -0.6592   4.4291   4.8345

          k = 0.2500-0.2500 0.4167 (  3272 PWs)   bands (ev):

    -4.5020   1.3428   4.8934   4.9311

          k = 0.0833-0.0833 0.2500 (  3267 PWs)   bands (ev):

    -5.4224   4.2837   5.4171   5.6085

          k =-0.0833 0.4167 0.0833 (  3262 PWs)   bands (ev):

    -4.9434   3.0854   4.6703   4.6828

          k =-0.2500 0.5833-0.0833 (  3262 PWs)   bands (ev):

    -4.0291   1.2389   3.3423   4.2945

          k = 0.5833-0.2500 0.7500 (  3258 PWs)   bands (ev):

    -2.9057  -0.5244   2.7399   4.0651

          k = 0.4167-0.0833 0.5833 (  3257 PWs)   bands (ev):

    -3.6325   0.5414   2.6951   4.5556

          k = 0.2500 0.0833 0.4167 (  3270 PWs)   bands (ev):

    -4.7169   2.2415   4.0436   5.2297

          k =-0.0833 0.7500 0.0833 (  3266 PWs)   bands (ev):

    -3.3149   0.4127   3.3053   3.6489

          k = 0.7500-0.0833 0.9167 (  3264 PWs)   bands (ev):

    -2.1129  -0.9329   2.4560   3.2382

          k = 0.5833 0.0833 0.7500 (  3258 PWs)   bands (ev):

    -2.4840  -0.5993   1.9705   3.7873

          k = 0.4167 0.2500 0.5833 (  3259 PWs)   bands (ev):

    -3.5191  -0.1527   3.6471   4.6547

          k =-0.0833-0.9167 0.0833 (  3276 PWs)   bands (ev):

    -2.2059  -0.9414   3.0341   3.4326

          k =-0.2500-0.7500-0.0833 (  3263 PWs)   bands (ev):

    -3.1451   0.1875   2.7812   3.5804

          k =-0.0833-0.5833 0.0833 (  3265 PWs)   bands (ev):

    -4.2358   1.7831   3.8542   4.0732

          k =-0.2500 0.2500 0.2500 (  3275 PWs)   bands (ev):

    -4.9549   2.2824   5.4515   5.4515

          k =-0.4167 0.4167 0.0833 (  3270 PWs)   bands (ev):

    -4.2729   1.3501   3.3062   5.2820

          k = 0.4167-0.4167 0.9167 (  3251 PWs)   bands (ev):

    -3.0876  -0.0947   2.1915   4.4900

          k = 0.2500-0.2500 0.7500 (  3259 PWs)   bands (ev):

    -3.0356  -0.1741   2.6746   4.0046

          k =-0.2500 0.5833 0.2500 (  3270 PWs)   bands (ev):

    -3.8468   0.5374   3.7779   4.3799

          k = 0.5833-0.2500 1.0833 (  3261 PWs)   bands (ev):

    -2.8398  -0.2051   2.2917   3.5772

          k = 0.4167-0.0833 0.9167 (  3256 PWs)   bands (ev):

    -2.0045  -0.9407   2.1240   2.9047

          k =-0.2500-1.0833 0.2500 (  3255 PWs)   bands (ev):

    -2.2159  -0.8482   1.9970   3.8090

          k =-0.4167 0.4167 0.4167 (  3254 PWs)   bands (ev):

    -3.7566  -0.2566   5.0619   5.0619

          k = 0.4167-0.4167 1.2500 (  3260 PWs)   bands (ev):

    -3.1482  -0.5579   3.2187   4.6179

     highest occupied level (ev):     6.0685

!    total energy              =     -22.83982824 Ry
     estimated scf accuracy    <       0.00000057 Ry

     The total energy is the sum of the following terms:
     one-electron contribution =       5.17106385 Ry
     hartree contribution      =       1.09975074 Ry
     xc contribution           =     -12.30971326 Ry
     ewald contribution        =     -16.80092957 Ry

     convergence has been achieved in   5 iterations

     Writing all to output data dir /home/guest/Rishi-Tushar/silicon-scf/output/silicon.save/ :
     XML data file, charge density, pseudopotentials, collected wavefunctions

     init_run     :      0.76s CPU      0.74s WALL (       1 calls)
     electrons    :      7.06s CPU      5.63s WALL (       1 calls)

     Called by init_run:
     wfcinit      :      0.41s CPU      0.36s WALL (       1 calls)
     potinit      :      0.03s CPU      0.04s WALL (       1 calls)
     hinit0       :      0.26s CPU      0.27s WALL (       1 calls)

     Called by electrons:
     c_bands      :      5.35s CPU      4.30s WALL (       6 calls)
     sum_band     :      1.33s CPU      1.03s WALL (       6 calls)
     v_of_rho     :      0.15s CPU      0.13s WALL (       6 calls)
     newd         :      0.25s CPU      0.21s WALL (       6 calls)
     mix_rho      :      0.01s CPU      0.01s WALL (       6 calls)

     Called by c_bands:
     init_us_2    :      0.21s CPU      0.17s WALL (     364 calls)
     cegterg      :      5.00s CPU      4.02s WALL (     168 calls)

     Called by *egterg:
     cdiaghg      :      0.04s CPU      0.03s WALL (     537 calls)
     h_psi        :      5.01s CPU      4.08s WALL (     593 calls)
     s_psi        :      0.08s CPU      0.07s WALL (     593 calls)
     g_psi        :      0.02s CPU      0.02s WALL (     397 calls)

     Called by h_psi:
     h_psi:calbec :      1.61s CPU      1.28s WALL (     593 calls)
     vloc_psi     :      3.30s CPU      2.73s WALL (     593 calls)
                                        0.00s GPU  (     593 calls)
     add_vuspsi   :      0.08s CPU      0.07s WALL (     593 calls)

     General routines
     calbec       :      1.96s CPU      1.54s WALL (     761 calls)
     fft          :      0.15s CPU      0.14s WALL (      67 calls)
     ffts         :      0.01s CPU      0.00s WALL (       6 calls)
     fftw         :      3.52s CPU      2.91s WALL (    4962 calls)

     Parallel routines

     PWSCF        :      7.96s CPU      6.52s WALL


   This run was terminated on:  15:10:44  12Jun2026            

=------------------------------------------------------------------------------=
   JOB DONE.
=------------------------------------------------------------------------------=
