
     Program PWSCF v.7.5 starts on 12Jun2026 at 15:10: 4 

     This program is part of the open-source Quantum ESPRESSO suite
     for quantum simulation of materials; please cite
         "P. Giannozzi et al., J. Phys.:Condens. Matter 21 395502 (2009);
         "P. Giannozzi et al., J. Phys.:Condens. Matter 29 465901 (2017);
         "P. Giannozzi et al., J. Chem. Phys. 152 154105 (2020);
          URL http://www.quantum-espresso.org", 
     in publications or presentations arising from this work. More details at
     http://www.quantum-espresso.org/quote

     Parallel version (MPI), running on     4 processors

     MPI processes distributed on     1 nodes
     13359 MiB available memory on the printing compute node when the environment starts

     Waiting for input...
     Reading input from standard input

     Current dimensions of program PWSCF are:
     Max number of different atomic species (ntypx) = 10
     Max number of k-points (npk) =  40000
     Max angular momentum in pseudopotentials (lmaxx) =  4

     R & G space division:  proc/nbgrp/npool/nimage =       4
     Subspace diagonalization in iterative solution of the eigenvalue problem:
     a serial algorithm will be used


     Parallelization info
     --------------------
     sticks:   dense  smooth     PW     G-vecs:    dense   smooth      PW
     Min         214     214     66                 4215     4215     722
     Max         215     215     67                 4218     4218     724
     Sum         859     859    265                16865    16865    2891

     Using Slab Decomposition



     bravais-lattice index     =            2
     lattice parameter (alat)  =      10.2600  a.u.
     unit-cell volume          =     270.0114 (a.u.)^3
     number of atoms/cell      =            2
     number of atomic types    =            1
     number of electrons       =         8.00
     number of Kohn-Sham states=            4
     kinetic-energy cutoff     =      60.0000  Ry
     charge density cutoff     =     240.0000  Ry
     scf convergence threshold =      1.0E-06
     mixing beta               =       0.6000
     number of iterations used =            8  plain     mixing
     Exchange-correlation= PBE
                           (   1   4   3   4   0   0   0)

     celldm(1)=  10.260000  celldm(2)=   0.000000  celldm(3)=   0.000000
     celldm(4)=   0.000000  celldm(5)=   0.000000  celldm(6)=   0.000000

     crystal axes: (cart. coord. in units of alat)
               a(1) = (  -0.500000   0.000000   0.500000 )  
               a(2) = (   0.000000   0.500000   0.500000 )  
               a(3) = (  -0.500000   0.500000   0.000000 )  

     reciprocal axes: (cart. coord. in units 2 pi/alat)
               b(1) = ( -1.000000 -1.000000  1.000000 )  
               b(2) = (  1.000000  1.000000  1.000000 )  
               b(3) = ( -1.000000  1.000000 -1.000000 )  


     PseudoPot. # 1 for Si read from file:
     /home/guest/Rishi-Tushar/silicon-scf/pseudopotential/Si.pbe-n-rrkjus_psl.1.0.0.UPF
     MD5 check sum: 0b0bb1205258b0d07b9f9672cf965d36
     Pseudo is Ultrasoft + core correction, Zval =  4.0
     Generated using "atomic" code by A. Dal Corso  v.5.1
     Using radial grid of 1141 points,  6 beta functions with: 
                l(1) =   0
                l(2) =   0
                l(3) =   1
                l(4) =   1
                l(5) =   2
                l(6) =   2
     Q(r) pseudized with 0 coefficients 


     atomic species   valence    mass     pseudopotential
     Si                4.00    28.08600     Si( 1.00)

     48 Sym. Ops., with inversion, found (24 have fractional translation)



   Cartesian axes

     site n.     atom                  positions (alat units)
         1        Si     tau(   1) = (   0.0000000   0.0000000   0.0000000  )
         2        Si     tau(   2) = (   0.2500000   0.2500000   0.2500000  )

     number of k points=    28
                       cart. coord. in units 2pi/alat
        k(    1) = (  -0.0833333   0.0833333   0.0833333), wk =   0.0185185
        k(    2) = (  -0.2500000   0.2500000  -0.0833333), wk =   0.0555556
        k(    3) = (  -0.4166667   0.4166667  -0.2500000), wk =   0.0555556
        k(    4) = (   0.4166667  -0.4166667   0.5833333), wk =   0.0555556
        k(    5) = (   0.2500000  -0.2500000   0.4166667), wk =   0.0555556
        k(    6) = (   0.0833333  -0.0833333   0.2500000), wk =   0.0555556
        k(    7) = (  -0.0833333   0.4166667   0.0833333), wk =   0.0555556
        k(    8) = (  -0.2500000   0.5833333  -0.0833333), wk =   0.1111111
        k(    9) = (   0.5833333  -0.2500000   0.7500000), wk =   0.1111111
        k(   10) = (   0.4166667  -0.0833333   0.5833333), wk =   0.1111111
        k(   11) = (   0.2500000   0.0833333   0.4166667), wk =   0.1111111
        k(   12) = (  -0.0833333   0.7500000   0.0833333), wk =   0.0555556
        k(   13) = (   0.7500000  -0.0833333   0.9166667), wk =   0.1111111
        k(   14) = (   0.5833333   0.0833333   0.7500000), wk =   0.1111111
        k(   15) = (   0.4166667   0.2500000   0.5833333), wk =   0.1111111
        k(   16) = (  -0.0833333  -0.9166667   0.0833333), wk =   0.0555556
        k(   17) = (  -0.2500000  -0.7500000  -0.0833333), wk =   0.1111111
        k(   18) = (  -0.0833333  -0.5833333   0.0833333), wk =   0.0555556
        k(   19) = (  -0.2500000   0.2500000   0.2500000), wk =   0.0185185
        k(   20) = (  -0.4166667   0.4166667   0.0833333), wk =   0.0555556
        k(   21) = (   0.4166667  -0.4166667   0.9166667), wk =   0.0555556
        k(   22) = (   0.2500000  -0.2500000   0.7500000), wk =   0.0555556
        k(   23) = (  -0.2500000   0.5833333   0.2500000), wk =   0.0555556
        k(   24) = (   0.5833333  -0.2500000   1.0833333), wk =   0.1111111
        k(   25) = (   0.4166667  -0.0833333   0.9166667), wk =   0.1111111
        k(   26) = (  -0.2500000  -1.0833333   0.2500000), wk =   0.0555556
        k(   27) = (  -0.4166667   0.4166667   0.4166667), wk =   0.0185185
        k(   28) = (   0.4166667  -0.4166667   1.2500000), wk =   0.0555556

     Dense  grid:    16865 G-vectors     FFT dimensions: (  36,  36,  36)

     Estimated max dynamical RAM per process >      17.13 MB

     Estimated total dynamical RAM >      68.50 MB

     Initial potential from superposition of free atoms

     starting charge       7.9989, renormalised to       8.0000
     Starting wfcs are    8 randomized atomic wfcs

     total cpu time spent up to now is        0.6 secs

     Self-consistent Calculation

     iteration #  1     ecut=    60.00 Ry     beta= 0.60
     Davidson diagonalization with overlap
     ethr =  1.00E-02,  avg # of iterations =  2.0

     Threshold (ethr) on eigenvalues was too large:
     Diagonalizing with lowered threshold

     Davidson diagonalization with overlap
     ethr =  6.20E-04,  avg # of iterations =  1.4

     total cpu time spent up to now is        1.4 secs

     total energy              =     -22.83810082 Ry
     estimated scf accuracy    <       0.05369174 Ry

     iteration #  2     ecut=    60.00 Ry     beta= 0.60
     Davidson diagonalization with overlap
     ethr =  6.71E-04,  avg # of iterations =  1.0

     total cpu time spent up to now is        1.7 secs

     total energy              =     -22.83870361 Ry
     estimated scf accuracy    <       0.00619373 Ry

     iteration #  3     ecut=    60.00 Ry     beta= 0.60
     Davidson diagonalization with overlap
     ethr =  7.74E-05,  avg # of iterations =  2.1

     total cpu time spent up to now is        2.2 secs

     total energy              =     -22.83968209 Ry
     estimated scf accuracy    <       0.00014989 Ry

     iteration #  4     ecut=    60.00 Ry     beta= 0.60
     Davidson diagonalization with overlap
     ethr =  1.87E-06,  avg # of iterations =  4.4

     total cpu time spent up to now is        2.8 secs

     total energy              =     -22.83979433 Ry
     estimated scf accuracy    <       0.00003141 Ry

     iteration #  5     ecut=    60.00 Ry     beta= 0.60
     Davidson diagonalization with overlap
     ethr =  3.93E-07,  avg # of iterations =  3.0

     total cpu time spent up to now is        3.2 secs

     End of self-consistent calculation

          k =-0.0833 0.0833 0.0833 (  2100 PWs)   bands (ev):

    -5.6636   5.3535   6.0689   6.0689

          k =-0.2500 0.2500-0.0833 (  2111 PWs)   bands (ev):

    -5.1851   3.2681   4.8250   5.8588

          k =-0.4167 0.4167-0.2500 (  2115 PWs)   bands (ev):

    -4.0877   0.4923   4.3611   5.2182

          k = 0.4167-0.4167 0.5833 (  2114 PWs)   bands (ev):

    -3.3843  -0.6589   4.4295   4.8349

          k = 0.2500-0.2500 0.4167 (  2117 PWs)   bands (ev):

    -4.5017   1.3432   4.8938   4.9315

          k = 0.0833-0.0833 0.2500 (  2109 PWs)   bands (ev):

    -5.4220   4.2841   5.4175   5.6089

          k =-0.0833 0.4167 0.0833 (  2105 PWs)   bands (ev):

    -4.9430   3.0858   4.6707   4.6831

          k =-0.2500 0.5833-0.0833 (  2111 PWs)   bands (ev):

    -4.0288   1.2393   3.3426   4.2948

          k = 0.5833-0.2500 0.7500 (  2123 PWs)   bands (ev):

    -2.9053  -0.5241   2.7402   4.0655

          k = 0.4167-0.0833 0.5833 (  2117 PWs)   bands (ev):

    -3.6321   0.5417   2.6954   4.5560

          k = 0.2500 0.0833 0.4167 (  2109 PWs)   bands (ev):

    -4.7166   2.2419   4.0439   5.2301

          k =-0.0833 0.7500 0.0833 (  2116 PWs)   bands (ev):

    -3.3145   0.4131   3.3056   3.6493

          k = 0.7500-0.0833 0.9167 (  2130 PWs)   bands (ev):

    -2.1125  -0.9325   2.4563   3.2385

          k = 0.5833 0.0833 0.7500 (  2125 PWs)   bands (ev):

    -2.4836  -0.5989   1.9707   3.7876

          k = 0.4167 0.2500 0.5833 (  2115 PWs)   bands (ev):

    -3.5187  -0.1523   3.6475   4.6550

          k =-0.0833-0.9167 0.0833 (  2121 PWs)   bands (ev):

    -2.2055  -0.9410   3.0344   3.4330

          k =-0.2500-0.7500-0.0833 (  2123 PWs)   bands (ev):

    -3.1447   0.1879   2.7815   3.5807

          k =-0.0833-0.5833 0.0833 (  2111 PWs)   bands (ev):

    -4.2354   1.7835   3.8545   4.0735

          k =-0.2500 0.2500 0.2500 (  2106 PWs)   bands (ev):

    -4.9546   2.2828   5.4519   5.4519

          k =-0.4167 0.4167 0.0833 (  2114 PWs)   bands (ev):

    -4.2725   1.3504   3.3065   5.2824

          k = 0.4167-0.4167 0.9167 (  2125 PWs)   bands (ev):

    -3.0873  -0.0943   2.1918   4.4903

          k = 0.2500-0.2500 0.7500 (  2123 PWs)   bands (ev):

    -3.0352  -0.1737   2.6749   4.0050

          k =-0.2500 0.5833 0.2500 (  2119 PWs)   bands (ev):

    -3.8464   0.5378   3.7782   4.3802

          k = 0.5833-0.2500 1.0833 (  2127 PWs)   bands (ev):

    -2.8394  -0.2047   2.2920   3.5775

          k = 0.4167-0.0833 0.9167 (  2138 PWs)   bands (ev):

    -2.0041  -0.9403   2.1242   2.9050

          k =-0.2500-1.0833 0.2500 (  2125 PWs)   bands (ev):

    -2.2155  -0.8478   1.9973   3.8094

          k =-0.4167 0.4167 0.4167 (  2108 PWs)   bands (ev):

    -3.7562  -0.2563   5.0623   5.0623

          k = 0.4167-0.4167 1.2500 (  2117 PWs)   bands (ev):

    -3.1478  -0.5575   3.2190   4.6183

     highest occupied level (ev):     6.0689

!    total energy              =     -22.83980301 Ry
     estimated scf accuracy    <       0.00000064 Ry

     The total energy is the sum of the following terms:
     one-electron contribution =       5.17105001 Ry
     hartree contribution      =       1.09986676 Ry
     xc contribution           =     -12.30979020 Ry
     ewald contribution        =     -16.80092958 Ry

     convergence has been achieved in   5 iterations

     Writing all to output data dir /home/guest/Rishi-Tushar/silicon-scf/output/silicon.save/ :
     XML data file, charge density, pseudopotentials, collected wavefunctions

     init_run     :      0.50s CPU      0.47s WALL (       1 calls)
     electrons    :      3.06s CPU      2.65s WALL (       1 calls)

     Called by init_run:
     wfcinit      :      0.21s CPU      0.17s WALL (       1 calls)
     potinit      :      0.02s CPU      0.02s WALL (       1 calls)
     hinit0       :      0.23s CPU      0.23s WALL (       1 calls)

     Called by electrons:
     c_bands      :      1.98s CPU      1.73s WALL (       6 calls)
     sum_band     :      0.86s CPU      0.74s WALL (       6 calls)
     v_of_rho     :      0.06s CPU      0.06s WALL (       6 calls)
     newd         :      0.18s CPU      0.15s WALL (       6 calls)
     mix_rho      :      0.00s CPU      0.00s WALL (       6 calls)

     Called by c_bands:
     init_us_2    :      0.12s CPU      0.11s WALL (     364 calls)
     cegterg      :      1.77s CPU      1.55s WALL (     168 calls)

     Called by *egterg:
     cdiaghg      :      0.03s CPU      0.03s WALL (     529 calls)
     h_psi        :      1.74s CPU      1.52s WALL (     585 calls)
     s_psi        :      0.05s CPU      0.05s WALL (     585 calls)
     g_psi        :      0.01s CPU      0.01s WALL (     389 calls)

     Called by h_psi:
     h_psi:calbec :      0.27s CPU      0.22s WALL (     585 calls)
     vloc_psi     :      1.41s CPU      1.24s WALL (     585 calls)
                                        0.00s GPU  (     585 calls)
     add_vuspsi   :      0.05s CPU      0.05s WALL (     585 calls)

     General routines
     calbec       :      0.66s CPU      0.55s WALL (     753 calls)
     fft          :      0.10s CPU      0.10s WALL (      67 calls)
     ffts         :      0.00s CPU      0.00s WALL (       6 calls)
     fftw         :      1.51s CPU      1.34s WALL (    4918 calls)

     Parallel routines

     PWSCF        :      3.69s CPU      3.26s WALL


   This run was terminated on:  15:10: 7  12Jun2026            

=------------------------------------------------------------------------------=
   JOB DONE.
=------------------------------------------------------------------------------=
