
     Program PWSCF v.7.5 starts on 12Jun2026 at 15:12:43 

     This program is part of the open-source Quantum ESPRESSO suite
     for quantum simulation of materials; please cite
         "P. Giannozzi et al., J. Phys.:Condens. Matter 21 395502 (2009);
         "P. Giannozzi et al., J. Phys.:Condens. Matter 29 465901 (2017);
         "P. Giannozzi et al., J. Chem. Phys. 152 154105 (2020);
          URL http://www.quantum-espresso.org", 
     in publications or presentations arising from this work. More details at
     http://www.quantum-espresso.org/quote

     Parallel version (MPI), running on     4 processors

     MPI processes distributed on     1 nodes
     13355 MiB available memory on the printing compute node when the environment starts

     Waiting for input...
     Reading input from standard input

     Current dimensions of program PWSCF are:
     Max number of different atomic species (ntypx) = 10
     Max number of k-points (npk) =  40000
     Max angular momentum in pseudopotentials (lmaxx) =  4

     R & G space division:  proc/nbgrp/npool/nimage =       4
     Subspace diagonalization in iterative solution of the eigenvalue problem:
     a serial algorithm will be used


     Parallelization info
     --------------------
     sticks:   dense  smooth     PW     G-vecs:    dense   smooth      PW
     Min         513     513    145                15123    15123    2342
     Max         514     514    146                15125    15125    2345
     Sum        2053    2053    583                60495    60495    9377

     Using Slab Decomposition



     bravais-lattice index     =            2
     lattice parameter (alat)  =      10.2600  a.u.
     unit-cell volume          =     270.0114 (a.u.)^3
     number of atoms/cell      =            2
     number of atomic types    =            1
     number of electrons       =         8.00
     number of Kohn-Sham states=            4
     kinetic-energy cutoff     =     140.0000  Ry
     charge density cutoff     =     560.0000  Ry
     scf convergence threshold =      1.0E-06
     mixing beta               =       0.6000
     number of iterations used =            8  plain     mixing
     Exchange-correlation= PBE
                           (   1   4   3   4   0   0   0)

     celldm(1)=  10.260000  celldm(2)=   0.000000  celldm(3)=   0.000000
     celldm(4)=   0.000000  celldm(5)=   0.000000  celldm(6)=   0.000000

     crystal axes: (cart. coord. in units of alat)
               a(1) = (  -0.500000   0.000000   0.500000 )  
               a(2) = (   0.000000   0.500000   0.500000 )  
               a(3) = (  -0.500000   0.500000   0.000000 )  

     reciprocal axes: (cart. coord. in units 2 pi/alat)
               b(1) = ( -1.000000 -1.000000  1.000000 )  
               b(2) = (  1.000000  1.000000  1.000000 )  
               b(3) = ( -1.000000  1.000000 -1.000000 )  


     PseudoPot. # 1 for Si read from file:
     /home/guest/Rishi-Tushar/silicon-scf/pseudopotential/Si.pbe-n-rrkjus_psl.1.0.0.UPF
     MD5 check sum: 0b0bb1205258b0d07b9f9672cf965d36
     Pseudo is Ultrasoft + core correction, Zval =  4.0
     Generated using "atomic" code by A. Dal Corso  v.5.1
     Using radial grid of 1141 points,  6 beta functions with: 
                l(1) =   0
                l(2) =   0
                l(3) =   1
                l(4) =   1
                l(5) =   2
                l(6) =   2
     Q(r) pseudized with 0 coefficients 


     atomic species   valence    mass     pseudopotential
     Si                4.00    28.08600     Si( 1.00)

     48 Sym. Ops., with inversion, found (24 have fractional translation)



   Cartesian axes

     site n.     atom                  positions (alat units)
         1        Si     tau(   1) = (   0.0000000   0.0000000   0.0000000  )
         2        Si     tau(   2) = (   0.2500000   0.2500000   0.2500000  )

     number of k points=    28
                       cart. coord. in units 2pi/alat
        k(    1) = (  -0.0833333   0.0833333   0.0833333), wk =   0.0185185
        k(    2) = (  -0.2500000   0.2500000  -0.0833333), wk =   0.0555556
        k(    3) = (  -0.4166667   0.4166667  -0.2500000), wk =   0.0555556
        k(    4) = (   0.4166667  -0.4166667   0.5833333), wk =   0.0555556
        k(    5) = (   0.2500000  -0.2500000   0.4166667), wk =   0.0555556
        k(    6) = (   0.0833333  -0.0833333   0.2500000), wk =   0.0555556
        k(    7) = (  -0.0833333   0.4166667   0.0833333), wk =   0.0555556
        k(    8) = (  -0.2500000   0.5833333  -0.0833333), wk =   0.1111111
        k(    9) = (   0.5833333  -0.2500000   0.7500000), wk =   0.1111111
        k(   10) = (   0.4166667  -0.0833333   0.5833333), wk =   0.1111111
        k(   11) = (   0.2500000   0.0833333   0.4166667), wk =   0.1111111
        k(   12) = (  -0.0833333   0.7500000   0.0833333), wk =   0.0555556
        k(   13) = (   0.7500000  -0.0833333   0.9166667), wk =   0.1111111
        k(   14) = (   0.5833333   0.0833333   0.7500000), wk =   0.1111111
        k(   15) = (   0.4166667   0.2500000   0.5833333), wk =   0.1111111
        k(   16) = (  -0.0833333  -0.9166667   0.0833333), wk =   0.0555556
        k(   17) = (  -0.2500000  -0.7500000  -0.0833333), wk =   0.1111111
        k(   18) = (  -0.0833333  -0.5833333   0.0833333), wk =   0.0555556
        k(   19) = (  -0.2500000   0.2500000   0.2500000), wk =   0.0185185
        k(   20) = (  -0.4166667   0.4166667   0.0833333), wk =   0.0555556
        k(   21) = (   0.4166667  -0.4166667   0.9166667), wk =   0.0555556
        k(   22) = (   0.2500000  -0.2500000   0.7500000), wk =   0.0555556
        k(   23) = (  -0.2500000   0.5833333   0.2500000), wk =   0.0555556
        k(   24) = (   0.5833333  -0.2500000   1.0833333), wk =   0.1111111
        k(   25) = (   0.4166667  -0.0833333   0.9166667), wk =   0.1111111
        k(   26) = (  -0.2500000  -1.0833333   0.2500000), wk =   0.0555556
        k(   27) = (  -0.4166667   0.4166667   0.4166667), wk =   0.0185185
        k(   28) = (   0.4166667  -0.4166667   1.2500000), wk =   0.0555556

     Dense  grid:    60495 G-vectors     FFT dimensions: (  60,  60,  60)

     Estimated max dynamical RAM per process >      59.66 MB

     Estimated total dynamical RAM >     238.65 MB

     Initial potential from superposition of free atoms

     starting charge       7.9989, renormalised to       8.0000
     Starting wfcs are    8 randomized atomic wfcs

     total cpu time spent up to now is        1.7 secs

     Self-consistent Calculation

     iteration #  1     ecut=   140.00 Ry     beta= 0.60
     Davidson diagonalization with overlap
     ethr =  1.00E-02,  avg # of iterations =  2.0

     Threshold (ethr) on eigenvalues was too large:
     Diagonalizing with lowered threshold

     Davidson diagonalization with overlap
     ethr =  6.17E-04,  avg # of iterations =  1.4

     total cpu time spent up to now is        4.8 secs

     total energy              =     -22.83814250 Ry
     estimated scf accuracy    <       0.05349815 Ry

     iteration #  2     ecut=   140.00 Ry     beta= 0.60
     Davidson diagonalization with overlap
     ethr =  6.69E-04,  avg # of iterations =  1.0

     total cpu time spent up to now is        6.1 secs

     total energy              =     -22.83876500 Ry
     estimated scf accuracy    <       0.00618533 Ry

     iteration #  3     ecut=   140.00 Ry     beta= 0.60
     Davidson diagonalization with overlap
     ethr =  7.73E-05,  avg # of iterations =  2.1

     total cpu time spent up to now is        7.9 secs

     total energy              =     -22.83972264 Ry
     estimated scf accuracy    <       0.00014447 Ry

     iteration #  4     ecut=   140.00 Ry     beta= 0.60
     Davidson diagonalization with overlap
     ethr =  1.81E-06,  avg # of iterations =  4.5

     total cpu time spent up to now is       10.3 secs

     total energy              =     -22.83983313 Ry
     estimated scf accuracy    <       0.00002513 Ry

     iteration #  5     ecut=   140.00 Ry     beta= 0.60
     Davidson diagonalization with overlap
     ethr =  3.14E-07,  avg # of iterations =  3.2

     total cpu time spent up to now is       12.0 secs

     End of self-consistent calculation

          k =-0.0833 0.0833 0.0833 (  7577 PWs)   bands (ev):

    -5.6638   5.3532   6.0686   6.0686

          k =-0.2500 0.2500-0.0833 (  7572 PWs)   bands (ev):

    -5.1853   3.2678   4.8248   5.8585

          k =-0.4167 0.4167-0.2500 (  7537 PWs)   bands (ev):

    -4.0880   0.4921   4.3608   5.2180

          k = 0.4167-0.4167 0.5833 (  7550 PWs)   bands (ev):

    -3.3846  -0.6591   4.4293   4.8347

          k = 0.2500-0.2500 0.4167 (  7547 PWs)   bands (ev):

    -4.5019   1.3429   4.8936   4.9313

          k = 0.0833-0.0833 0.2500 (  7583 PWs)   bands (ev):

    -5.4223   4.2838   5.4172   5.6086

          k =-0.0833 0.4167 0.0833 (  7565 PWs)   bands (ev):

    -4.9432   3.0856   4.6704   4.6829

          k =-0.2500 0.5833-0.0833 (  7552 PWs)   bands (ev):

    -4.0290   1.2391   3.3424   4.2946

          k = 0.5833-0.2500 0.7500 (  7558 PWs)   bands (ev):

    -2.9056  -0.5243   2.7400   4.0652

          k = 0.4167-0.0833 0.5833 (  7553 PWs)   bands (ev):

    -3.6323   0.5415   2.6952   4.5558

          k = 0.2500 0.0833 0.4167 (  7559 PWs)   bands (ev):

    -4.7168   2.2416   4.0437   5.2299

          k =-0.0833 0.7500 0.0833 (  7560 PWs)   bands (ev):

    -3.3148   0.4128   3.3054   3.6491

          k = 0.7500-0.0833 0.9167 (  7544 PWs)   bands (ev):

    -2.1127  -0.9327   2.4561   3.2383

          k = 0.5833 0.0833 0.7500 (  7548 PWs)   bands (ev):

    -2.4838  -0.5992   1.9706   3.7874

          k = 0.4167 0.2500 0.5833 (  7549 PWs)   bands (ev):

    -3.5190  -0.1525   3.6472   4.6548

          k =-0.0833-0.9167 0.0833 (  7554 PWs)   bands (ev):

    -2.2058  -0.9412   3.0342   3.4328

          k =-0.2500-0.7500-0.0833 (  7547 PWs)   bands (ev):

    -3.1450   0.1876   2.7813   3.5805

          k =-0.0833-0.5833 0.0833 (  7552 PWs)   bands (ev):

    -4.2356   1.7832   3.8543   4.0733

          k =-0.2500 0.2500 0.2500 (  7564 PWs)   bands (ev):

    -4.9548   2.2825   5.4516   5.4516

          k =-0.4167 0.4167 0.0833 (  7552 PWs)   bands (ev):

    -4.2727   1.3502   3.3063   5.2821

          k = 0.4167-0.4167 0.9167 (  7555 PWs)   bands (ev):

    -3.0875  -0.0945   2.1916   4.4901

          k = 0.2500-0.2500 0.7500 (  7554 PWs)   bands (ev):

    -3.0354  -0.1740   2.6747   4.0047

          k =-0.2500 0.5833 0.2500 (  7545 PWs)   bands (ev):

    -3.8467   0.5375   3.7780   4.3800

          k = 0.5833-0.2500 1.0833 (  7558 PWs)   bands (ev):

    -2.8397  -0.2050   2.2918   3.5773

          k = 0.4167-0.0833 0.9167 (  7541 PWs)   bands (ev):

    -2.0044  -0.9405   2.1241   2.9048

          k =-0.2500-1.0833 0.2500 (  7540 PWs)   bands (ev):

    -2.2157  -0.8480   1.9971   3.8091

          k =-0.4167 0.4167 0.4167 (  7564 PWs)   bands (ev):

    -3.7565  -0.2565   5.0620   5.0620

          k = 0.4167-0.4167 1.2500 (  7560 PWs)   bands (ev):

    -3.1481  -0.5578   3.2188   4.6180

     highest occupied level (ev):     6.0686

!    total energy              =     -22.83984109 Ry
     estimated scf accuracy    <       0.00000055 Ry

     The total energy is the sum of the following terms:
     one-electron contribution =       5.17097773 Ry
     hartree contribution      =       1.09986239 Ry
     xc contribution           =     -12.30975162 Ry
     ewald contribution        =     -16.80092957 Ry

     convergence has been achieved in   5 iterations

     Writing all to output data dir /home/guest/Rishi-Tushar/silicon-scf/output/silicon.save/ :
     XML data file, charge density, pseudopotentials, collected wavefunctions

     init_run     :      1.66s CPU      1.52s WALL (       1 calls)
     electrons    :     12.34s CPU     10.39s WALL (       1 calls)

     Called by init_run:
     wfcinit      :      1.04s CPU      0.88s WALL (       1 calls)
     potinit      :      0.06s CPU      0.07s WALL (       1 calls)
     hinit0       :      0.33s CPU      0.33s WALL (       1 calls)

     Called by electrons:
     c_bands      :      9.55s CPU      7.83s WALL (       6 calls)
     sum_band     :      2.14s CPU      1.85s WALL (       6 calls)
     v_of_rho     :      0.31s CPU      0.28s WALL (       6 calls)
     newd         :      0.43s CPU      0.54s WALL (       6 calls)
     mix_rho      :      0.02s CPU      0.02s WALL (       6 calls)

     Called by c_bands:
     init_us_2    :      0.51s CPU      0.40s WALL (     364 calls)
     cegterg      :      8.74s CPU      7.19s WALL (     168 calls)

     Called by *egterg:
     cdiaghg      :      0.06s CPU      0.04s WALL (     538 calls)
     h_psi        :      7.46s CPU      6.29s WALL (     594 calls)
     s_psi        :      0.20s CPU      0.14s WALL (     594 calls)
     g_psi        :      0.05s CPU      0.04s WALL (     398 calls)

     Called by h_psi:
     h_psi:calbec :      0.42s CPU      0.40s WALL (     594 calls)
     vloc_psi     :      6.81s CPU      5.72s WALL (     594 calls)
                                        0.00s GPU  (     594 calls)
     add_vuspsi   :      0.21s CPU      0.15s WALL (     594 calls)

     General routines
     calbec       :      0.53s CPU      0.53s WALL (     762 calls)
     fft          :      0.22s CPU      0.22s WALL (      67 calls)
     ffts         :      0.01s CPU      0.01s WALL (       6 calls)
     fftw         :      7.21s CPU      6.07s WALL (    4948 calls)

     Parallel routines

     PWSCF        :     14.17s CPU     12.10s WALL


   This run was terminated on:  15:12:55  12Jun2026            

=------------------------------------------------------------------------------=
   JOB DONE.
=------------------------------------------------------------------------------=
