
     Program PWSCF v.7.5 starts on 11Jun2026 at 14:35:11 

     This program is part of the open-source Quantum ESPRESSO suite
     for quantum simulation of materials; please cite
         "P. Giannozzi et al., J. Phys.:Condens. Matter 21 395502 (2009);
         "P. Giannozzi et al., J. Phys.:Condens. Matter 29 465901 (2017);
         "P. Giannozzi et al., J. Chem. Phys. 152 154105 (2020);
          URL http://www.quantum-espresso.org", 
     in publications or presentations arising from this work. More details at
     http://www.quantum-espresso.org/quote

     Parallel version (MPI), running on     4 processors

     MPI processes distributed on     1 nodes
     14060 MiB available memory on the printing compute node when the environment starts

     Waiting for input...
     Reading input from standard input

     Current dimensions of program PWSCF are:
     Max number of different atomic species (ntypx) = 10
     Max number of k-points (npk) =  40000
     Max angular momentum in pseudopotentials (lmaxx) =  4

     R & G space division:  proc/nbgrp/npool/nimage =       4
     Subspace diagonalization in iterative solution of the eigenvalue problem:
     a serial algorithm will be used


     Parallelization info
     --------------------
     sticks:   dense  smooth     PW     G-vecs:    dense   smooth      PW
     Min         108     108     37                 1489     1489     284
     Max         109     109     38                 1492     1492     285
     Sum         433     433    151                 5961     5961    1139

     Using Slab Decomposition



     bravais-lattice index     =            2
     lattice parameter (alat)  =      10.2600  a.u.
     unit-cell volume          =     270.0114 (a.u.)^3
     number of atoms/cell      =            2
     number of atomic types    =            1
     number of electrons       =         8.00
     number of Kohn-Sham states=            4
     kinetic-energy cutoff     =      30.0000  Ry
     charge density cutoff     =     120.0000  Ry
     scf convergence threshold =      1.0E-06
     mixing beta               =       0.6000
     number of iterations used =            8  plain     mixing
     Exchange-correlation= PBE
                           (   1   4   3   4   0   0   0)

     celldm(1)=  10.260000  celldm(2)=   0.000000  celldm(3)=   0.000000
     celldm(4)=   0.000000  celldm(5)=   0.000000  celldm(6)=   0.000000

     crystal axes: (cart. coord. in units of alat)
               a(1) = (  -0.500000   0.000000   0.500000 )  
               a(2) = (   0.000000   0.500000   0.500000 )  
               a(3) = (  -0.500000   0.500000   0.000000 )  

     reciprocal axes: (cart. coord. in units 2 pi/alat)
               b(1) = ( -1.000000 -1.000000  1.000000 )  
               b(2) = (  1.000000  1.000000  1.000000 )  
               b(3) = ( -1.000000  1.000000 -1.000000 )  


     PseudoPot. # 1 for Si read from file:
     /home/guest/RISHI/Si.pbe-n-rrkjus_psl.1.0.0.UPF
     MD5 check sum: 0b0bb1205258b0d07b9f9672cf965d36
     Pseudo is Ultrasoft + core correction, Zval =  4.0
     Generated using "atomic" code by A. Dal Corso  v.5.1
     Using radial grid of 1141 points,  6 beta functions with: 
                l(1) =   0
                l(2) =   0
                l(3) =   1
                l(4) =   1
                l(5) =   2
                l(6) =   2
     Q(r) pseudized with 0 coefficients 


     atomic species   valence    mass     pseudopotential
     Si                4.00    28.08600     Si( 1.00)

     48 Sym. Ops., with inversion, found (24 have fractional translation)



   Cartesian axes

     site n.     atom                  positions (alat units)
         1        Si     tau(   1) = (   0.0000000   0.0000000   0.0000000  )
         2        Si     tau(   2) = (   0.2500000   0.2500000   0.2500000  )

     number of k points=    28
                       cart. coord. in units 2pi/alat
        k(    1) = (  -0.0833333   0.0833333   0.0833333), wk =   0.0185185
        k(    2) = (  -0.2500000   0.2500000  -0.0833333), wk =   0.0555556
        k(    3) = (  -0.4166667   0.4166667  -0.2500000), wk =   0.0555556
        k(    4) = (   0.4166667  -0.4166667   0.5833333), wk =   0.0555556
        k(    5) = (   0.2500000  -0.2500000   0.4166667), wk =   0.0555556
        k(    6) = (   0.0833333  -0.0833333   0.2500000), wk =   0.0555556
        k(    7) = (  -0.0833333   0.4166667   0.0833333), wk =   0.0555556
        k(    8) = (  -0.2500000   0.5833333  -0.0833333), wk =   0.1111111
        k(    9) = (   0.5833333  -0.2500000   0.7500000), wk =   0.1111111
        k(   10) = (   0.4166667  -0.0833333   0.5833333), wk =   0.1111111
        k(   11) = (   0.2500000   0.0833333   0.4166667), wk =   0.1111111
        k(   12) = (  -0.0833333   0.7500000   0.0833333), wk =   0.0555556
        k(   13) = (   0.7500000  -0.0833333   0.9166667), wk =   0.1111111
        k(   14) = (   0.5833333   0.0833333   0.7500000), wk =   0.1111111
        k(   15) = (   0.4166667   0.2500000   0.5833333), wk =   0.1111111
        k(   16) = (  -0.0833333  -0.9166667   0.0833333), wk =   0.0555556
        k(   17) = (  -0.2500000  -0.7500000  -0.0833333), wk =   0.1111111
        k(   18) = (  -0.0833333  -0.5833333   0.0833333), wk =   0.0555556
        k(   19) = (  -0.2500000   0.2500000   0.2500000), wk =   0.0185185
        k(   20) = (  -0.4166667   0.4166667   0.0833333), wk =   0.0555556
        k(   21) = (   0.4166667  -0.4166667   0.9166667), wk =   0.0555556
        k(   22) = (   0.2500000  -0.2500000   0.7500000), wk =   0.0555556
        k(   23) = (  -0.2500000   0.5833333   0.2500000), wk =   0.0555556
        k(   24) = (   0.5833333  -0.2500000   1.0833333), wk =   0.1111111
        k(   25) = (   0.4166667  -0.0833333   0.9166667), wk =   0.1111111
        k(   26) = (  -0.2500000  -1.0833333   0.2500000), wk =   0.0555556
        k(   27) = (  -0.4166667   0.4166667   0.4166667), wk =   0.0185185
        k(   28) = (   0.4166667  -0.4166667   1.2500000), wk =   0.0555556

     Dense  grid:     5961 G-vectors     FFT dimensions: (  32,  32,  32)

     Estimated max dynamical RAM per process >       6.77 MB

     Estimated total dynamical RAM >      27.09 MB

     Check: negative core charge=   -0.000004

     Initial potential from superposition of free atoms

     starting charge       7.9989, renormalised to       8.0000
     Starting wfcs are    8 randomized atomic wfcs

     total cpu time spent up to now is        0.4 secs

     Self-consistent Calculation

     iteration #  1     ecut=    30.00 Ry     beta= 0.60
     Davidson diagonalization with overlap
     ethr =  1.00E-02,  avg # of iterations =  2.0

     Threshold (ethr) on eigenvalues was too large:
     Diagonalizing with lowered threshold

     Davidson diagonalization with overlap
     ethr =  6.22E-04,  avg # of iterations =  1.5

     total cpu time spent up to now is        0.7 secs

     total energy              =     -22.83788897 Ry
     estimated scf accuracy    <       0.05391747 Ry

     iteration #  2     ecut=    30.00 Ry     beta= 0.60
     Davidson diagonalization with overlap
     ethr =  6.74E-04,  avg # of iterations =  1.0

     total cpu time spent up to now is        0.8 secs

     total energy              =     -22.83851485 Ry
     estimated scf accuracy    <       0.00613946 Ry

     iteration #  3     ecut=    30.00 Ry     beta= 0.60
     Davidson diagonalization with overlap
     ethr =  7.67E-05,  avg # of iterations =  2.0

     total cpu time spent up to now is        1.0 secs

     total energy              =     -22.83946136 Ry
     estimated scf accuracy    <       0.00014230 Ry

     iteration #  4     ecut=    30.00 Ry     beta= 0.60
     Davidson diagonalization with overlap
     ethr =  1.78E-06,  avg # of iterations =  4.5

     total cpu time spent up to now is        1.2 secs

     total energy              =     -22.83957438 Ry
     estimated scf accuracy    <       0.00001901 Ry

     iteration #  5     ecut=    30.00 Ry     beta= 0.60
     Davidson diagonalization with overlap
     ethr =  2.38E-07,  avg # of iterations =  3.1

     total cpu time spent up to now is        1.4 secs

     End of self-consistent calculation

          k =-0.0833 0.0833 0.0833 (   737 PWs)   bands (ev):

    -5.6632   5.3540   6.0694   6.0694

          k =-0.2500 0.2500-0.0833 (   756 PWs)   bands (ev):

    -5.1847   3.2683   4.8254   5.8592

          k =-0.4167 0.4167-0.2500 (   752 PWs)   bands (ev):

    -4.0874   0.4926   4.3614   5.2186

          k = 0.4167-0.4167 0.5833 (   751 PWs)   bands (ev):

    -3.3840  -0.6586   4.4298   4.8352

          k = 0.2500-0.2500 0.4167 (   758 PWs)   bands (ev):

    -4.5013   1.3434   4.8941   4.9318

          k = 0.0833-0.0833 0.2500 (   755 PWs)   bands (ev):

    -5.4217   4.2844   5.4179   5.6093

          k =-0.0833 0.4167 0.0833 (   750 PWs)   bands (ev):

    -4.9427   3.0861   4.6710   4.6834

          k =-0.2500 0.5833-0.0833 (   750 PWs)   bands (ev):

    -4.0284   1.2396   3.3429   4.2951

          k = 0.5833-0.2500 0.7500 (   746 PWs)   bands (ev):

    -2.9050  -0.5238   2.7405   4.0657

          k = 0.4167-0.0833 0.5833 (   753 PWs)   bands (ev):

    -3.6317   0.5420   2.6956   4.5563

          k = 0.2500 0.0833 0.4167 (   756 PWs)   bands (ev):

    -4.7162   2.2422   4.0442   5.2304

          k =-0.0833 0.7500 0.0833 (   752 PWs)   bands (ev):

    -3.3142   0.4134   3.3059   3.6495

          k = 0.7500-0.0833 0.9167 (   745 PWs)   bands (ev):

    -2.1122  -0.9322   2.4565   3.2387

          k = 0.5833 0.0833 0.7500 (   743 PWs)   bands (ev):

    -2.4832  -0.5986   1.9710   3.7879

          k = 0.4167 0.2500 0.5833 (   752 PWs)   bands (ev):

    -3.5184  -0.1520   3.6478   4.6553

          k =-0.0833-0.9167 0.0833 (   749 PWs)   bands (ev):

    -2.2052  -0.9406   3.0346   3.4332

          k =-0.2500-0.7500-0.0833 (   750 PWs)   bands (ev):

    -3.1444   0.1882   2.7817   3.5810

          k =-0.0833-0.5833 0.0833 (   743 PWs)   bands (ev):

    -4.2351   1.7838   3.8548   4.0738

          k =-0.2500 0.2500 0.2500 (   754 PWs)   bands (ev):

    -4.9542   2.2831   5.4522   5.4522

          k =-0.4167 0.4167 0.0833 (   748 PWs)   bands (ev):

    -4.2722   1.3507   3.3068   5.2827

          k = 0.4167-0.4167 0.9167 (   749 PWs)   bands (ev):

    -3.0869  -0.0940   2.1921   4.4906

          k = 0.2500-0.2500 0.7500 (   748 PWs)   bands (ev):

    -3.0348  -0.1734   2.6751   4.0052

          k =-0.2500 0.5833 0.2500 (   754 PWs)   bands (ev):

    -3.8461   0.5380   3.7785   4.3805

          k = 0.5833-0.2500 1.0833 (   746 PWs)   bands (ev):

    -2.8391  -0.2044   2.2922   3.5777

          k = 0.4167-0.0833 0.9167 (   745 PWs)   bands (ev):

    -2.0038  -0.9400   2.1245   2.9052

          k =-0.2500-1.0833 0.2500 (   744 PWs)   bands (ev):

    -2.2151  -0.8475   1.9975   3.8096

          k =-0.4167 0.4167 0.4167 (   760 PWs)   bands (ev):

    -3.7559  -0.2560   5.0625   5.0625

          k = 0.4167-0.4167 1.2500 (   749 PWs)   bands (ev):

    -3.1475  -0.5572   3.2193   4.6185

     highest occupied level (ev):     6.0694

!    total energy              =     -22.83958078 Ry
     estimated scf accuracy    <       0.00000046 Ry

     The total energy is the sum of the following terms:
     one-electron contribution =       5.17119574 Ry
     hartree contribution      =       1.09974866 Ry
     xc contribution           =     -12.30959557 Ry
     ewald contribution        =     -16.80092961 Ry

     convergence has been achieved in   5 iterations

     Writing all to output data dir /home/guest/RISHI/silicon.save/ :
     XML data file, charge density, pseudopotentials, collected wavefunctions

     init_run     :      0.27s CPU      0.27s WALL (       1 calls)
     electrons    :      1.12s CPU      1.04s WALL (       1 calls)

     Called by init_run:
     wfcinit      :      0.10s CPU      0.09s WALL (       1 calls)
     potinit      :      0.01s CPU      0.01s WALL (       1 calls)
     hinit0       :      0.15s CPU      0.15s WALL (       1 calls)

     Called by electrons:
     c_bands      :      0.84s CPU      0.79s WALL (       6 calls)
     sum_band     :      0.20s CPU      0.18s WALL (       6 calls)
     v_of_rho     :      0.03s CPU      0.04s WALL (       6 calls)
     newd         :      0.05s CPU      0.05s WALL (       6 calls)
     mix_rho      :      0.00s CPU      0.00s WALL (       6 calls)

     Called by c_bands:
     init_us_2    :      0.04s CPU      0.04s WALL (     364 calls)
     cegterg      :      0.77s CPU      0.72s WALL (     168 calls)

     Called by *egterg:
     cdiaghg      :      0.03s CPU      0.03s WALL (     537 calls)
     h_psi        :      0.73s CPU      0.69s WALL (     593 calls)
     s_psi        :      0.03s CPU      0.02s WALL (     593 calls)
     g_psi        :      0.00s CPU      0.00s WALL (     397 calls)

     Called by h_psi:
     h_psi:calbec :      0.03s CPU      0.03s WALL (     593 calls)
     vloc_psi     :      0.67s CPU      0.63s WALL (     593 calls)
                                        0.00s GPU  (     593 calls)
     add_vuspsi   :      0.03s CPU      0.02s WALL (     593 calls)

     General routines
     calbec       :      0.04s CPU      0.04s WALL (     761 calls)
     fft          :      0.05s CPU      0.05s WALL (      67 calls)
     ffts         :      0.00s CPU      0.00s WALL (       6 calls)
     fftw         :      0.69s CPU      0.66s WALL (    4984 calls)

     Parallel routines

     PWSCF        :      1.52s CPU      1.44s WALL


   This run was terminated on:  14:35:13  11Jun2026            

=------------------------------------------------------------------------------=
   JOB DONE.
=------------------------------------------------------------------------------=
