
     Program PWSCF v.7.5 starts on 12Jun2026 at 15:57:41 

     This program is part of the open-source Quantum ESPRESSO suite
     for quantum simulation of materials; please cite
         "P. Giannozzi et al., J. Phys.:Condens. Matter 21 395502 (2009);
         "P. Giannozzi et al., J. Phys.:Condens. Matter 29 465901 (2017);
         "P. Giannozzi et al., J. Chem. Phys. 152 154105 (2020);
          URL http://www.quantum-espresso.org", 
     in publications or presentations arising from this work. More details at
     http://www.quantum-espresso.org/quote

     Parallel version (MPI), running on     4 processors

     MPI processes distributed on     1 nodes
     12136 MiB available memory on the printing compute node when the environment starts

     Waiting for input...
     Reading input from standard input

     Current dimensions of program PWSCF are:
     Max number of different atomic species (ntypx) = 10
     Max number of k-points (npk) =  40000
     Max angular momentum in pseudopotentials (lmaxx) =  4

     R & G space division:  proc/nbgrp/npool/nimage =       4
     Subspace diagonalization in iterative solution of the eigenvalue problem:
     a serial algorithm will be used


     Parallelization info
     --------------------
     sticks:   dense  smooth     PW     G-vecs:    dense   smooth      PW
     Min         183     183     58                 3234     3234     569
     Max         184     184     59                 3236     3236     570
     Sum         733     733    235                12939    12939    2277

     Using Slab Decomposition



     bravais-lattice index     =            2
     lattice parameter (alat)  =      10.2600  a.u.
     unit-cell volume          =     270.0114 (a.u.)^3
     number of atoms/cell      =            2
     number of atomic types    =            1
     number of electrons       =         8.00
     number of Kohn-Sham states=            4
     kinetic-energy cutoff     =      50.0000  Ry
     charge density cutoff     =     200.0000  Ry
     scf convergence threshold =      1.0E-06
     mixing beta               =       0.6000
     number of iterations used =            8  plain     mixing
     Exchange-correlation= PBE
                           (   1   4   3   4   0   0   0)

     celldm(1)=  10.260000  celldm(2)=   0.000000  celldm(3)=   0.000000
     celldm(4)=   0.000000  celldm(5)=   0.000000  celldm(6)=   0.000000

     crystal axes: (cart. coord. in units of alat)
               a(1) = (  -0.500000   0.000000   0.500000 )  
               a(2) = (   0.000000   0.500000   0.500000 )  
               a(3) = (  -0.500000   0.500000   0.000000 )  

     reciprocal axes: (cart. coord. in units 2 pi/alat)
               b(1) = ( -1.000000 -1.000000  1.000000 )  
               b(2) = (  1.000000  1.000000  1.000000 )  
               b(3) = ( -1.000000  1.000000 -1.000000 )  


     PseudoPot. # 1 for Si read from file:
     /home/guest/Rishi-Tushar/silicon-scf/pseudopotential/Si.pbe-n-rrkjus_psl.1.0.0.UPF
     MD5 check sum: 0b0bb1205258b0d07b9f9672cf965d36
     Pseudo is Ultrasoft + core correction, Zval =  4.0
     Generated using "atomic" code by A. Dal Corso  v.5.1
     Using radial grid of 1141 points,  6 beta functions with: 
                l(1) =   0
                l(2) =   0
                l(3) =   1
                l(4) =   1
                l(5) =   2
                l(6) =   2
     Q(r) pseudized with 0 coefficients 


     atomic species   valence    mass     pseudopotential
     Si                4.00    28.08600     Si( 1.00)

     48 Sym. Ops., with inversion, found (24 have fractional translation)



   Cartesian axes

     site n.     atom                  positions (alat units)
         1        Si     tau(   1) = (   0.0000000   0.0000000   0.0000000  )
         2        Si     tau(   2) = (   0.2500000   0.2500000   0.2500000  )

     number of k points=   110

     Number of k-points >= 100: set verbosity='high' to print them.

     Dense  grid:    12939 G-vectors     FFT dimensions: (  36,  36,  36)

     Estimated max dynamical RAM per process >      15.52 MB

     Estimated total dynamical RAM >      62.07 MB

     Initial potential from superposition of free atoms

     starting charge       7.9989, renormalised to       8.0000
     Starting wfcs are    8 randomized atomic wfcs

     total cpu time spent up to now is        1.1 secs

     Self-consistent Calculation

     iteration #  1     ecut=    50.00 Ry     beta= 0.60
     Davidson diagonalization with overlap
     ethr =  1.00E-02,  avg # of iterations =  2.0

     Threshold (ethr) on eigenvalues was too large:
     Diagonalizing with lowered threshold

     Davidson diagonalization with overlap
     ethr =  6.20E-04,  avg # of iterations =  1.4

     total cpu time spent up to now is        3.2 secs

     total energy              =     -22.83807917 Ry
     estimated scf accuracy    <       0.05375607 Ry

     iteration #  2     ecut=    50.00 Ry     beta= 0.60
     Davidson diagonalization with overlap
     ethr =  6.72E-04,  avg # of iterations =  1.0

     total cpu time spent up to now is        4.1 secs

     total energy              =     -22.83871565 Ry
     estimated scf accuracy    <       0.00615072 Ry

     iteration #  3     ecut=    50.00 Ry     beta= 0.60
     Davidson diagonalization with overlap
     ethr =  7.69E-05,  avg # of iterations =  2.0

     total cpu time spent up to now is        5.2 secs

     total energy              =     -22.83966343 Ry
     estimated scf accuracy    <       0.00014278 Ry

     iteration #  4     ecut=    50.00 Ry     beta= 0.60
     Davidson diagonalization with overlap
     ethr =  1.78E-06,  avg # of iterations =  4.5

     total cpu time spent up to now is        6.8 secs

     total energy              =     -22.83977920 Ry
     estimated scf accuracy    <       0.00002052 Ry

     iteration #  5     ecut=    50.00 Ry     beta= 0.60
     Davidson diagonalization with overlap
     ethr =  2.57E-07,  avg # of iterations =  3.3

     total cpu time spent up to now is        8.1 secs

     End of self-consistent calculation

     Number of k-points >= 100: set verbosity='high' to print the bands.

     highest occupied level (ev):     6.1571

!    total energy              =     -22.83978637 Ry
     estimated scf accuracy    <       0.00000051 Ry

     The total energy is the sum of the following terms:
     one-electron contribution =       5.17111589 Ry
     hartree contribution      =       1.09973107 Ry
     xc contribution           =     -12.30970372 Ry
     ewald contribution        =     -16.80092961 Ry

     convergence has been achieved in   5 iterations

     Writing all to output data dir /home/guest/Rishi-Tushar/silicon-scf/output/silicon.save/ :
     XML data file, charge density, pseudopotentials, collected wavefunctions

     init_run     :      1.14s CPU      1.01s WALL (       1 calls)
     electrons    :      7.99s CPU      7.01s WALL (       1 calls)

     Called by init_run:
     wfcinit      :      0.87s CPU      0.74s WALL (       1 calls)
     potinit      :      0.02s CPU      0.02s WALL (       1 calls)
     hinit0       :      0.21s CPU      0.22s WALL (       1 calls)

     Called by electrons:
     c_bands      :      6.61s CPU      5.78s WALL (       6 calls)
     sum_band     :      1.23s CPU      1.10s WALL (       6 calls)
     v_of_rho     :      0.06s CPU      0.06s WALL (       6 calls)
     newd         :      0.11s CPU      0.09s WALL (       6 calls)
     mix_rho      :      0.00s CPU      0.00s WALL (       6 calls)

     Called by c_bands:
     init_us_2    :      0.37s CPU      0.32s WALL (    1430 calls)
     cegterg      :      5.97s CPU      5.24s WALL (     660 calls)

     Called by *egterg:
     cdiaghg      :      0.12s CPU      0.11s WALL (    2122 calls)
     h_psi        :      6.02s CPU      5.29s WALL (    2342 calls)
     s_psi        :      0.17s CPU      0.14s WALL (    2342 calls)
     g_psi        :      0.04s CPU      0.03s WALL (    1572 calls)

     Called by h_psi:
     h_psi:calbec :      0.21s CPU      0.19s WALL (    2342 calls)
     vloc_psi     :      5.62s CPU      4.93s WALL (    2342 calls)
                                        0.00s GPU  (    2342 calls)
     add_vuspsi   :      0.17s CPU      0.15s WALL (    2342 calls)

     General routines
     calbec       :      0.26s CPU      0.24s WALL (    3002 calls)
     fft          :      0.10s CPU      0.10s WALL (      67 calls)
     ffts         :      0.00s CPU      0.00s WALL (       6 calls)
     fftw         :      6.00s CPU      5.29s WALL (   19582 calls)

     Parallel routines

     PWSCF        :      9.29s CPU      8.19s WALL


   This run was terminated on:  15:57:49  12Jun2026            

=------------------------------------------------------------------------------=
   JOB DONE.
=------------------------------------------------------------------------------=
