
     Program PWSCF v.7.5 starts on 12Jun2026 at 15:58: 7 

     This program is part of the open-source Quantum ESPRESSO suite
     for quantum simulation of materials; please cite
         "P. Giannozzi et al., J. Phys.:Condens. Matter 21 395502 (2009);
         "P. Giannozzi et al., J. Phys.:Condens. Matter 29 465901 (2017);
         "P. Giannozzi et al., J. Chem. Phys. 152 154105 (2020);
          URL http://www.quantum-espresso.org", 
     in publications or presentations arising from this work. More details at
     http://www.quantum-espresso.org/quote

     Parallel version (MPI), running on     4 processors

     MPI processes distributed on     1 nodes
     12129 MiB available memory on the printing compute node when the environment starts

     Waiting for input...
     Reading input from standard input

     Current dimensions of program PWSCF are:
     Max number of different atomic species (ntypx) = 10
     Max number of k-points (npk) =  40000
     Max angular momentum in pseudopotentials (lmaxx) =  4

     R & G space division:  proc/nbgrp/npool/nimage =       4
     Subspace diagonalization in iterative solution of the eigenvalue problem:
     a serial algorithm will be used


     Parallelization info
     --------------------
     sticks:   dense  smooth     PW     G-vecs:    dense   smooth      PW
     Min         183     183     58                 3234     3234     569
     Max         184     184     59                 3236     3236     570
     Sum         733     733    235                12939    12939    2277

     Using Slab Decomposition



     bravais-lattice index     =            2
     lattice parameter (alat)  =      10.2600  a.u.
     unit-cell volume          =     270.0114 (a.u.)^3
     number of atoms/cell      =            2
     number of atomic types    =            1
     number of electrons       =         8.00
     number of Kohn-Sham states=            4
     kinetic-energy cutoff     =      50.0000  Ry
     charge density cutoff     =     200.0000  Ry
     scf convergence threshold =      1.0E-06
     mixing beta               =       0.6000
     number of iterations used =            8  plain     mixing
     Exchange-correlation= PBE
                           (   1   4   3   4   0   0   0)

     celldm(1)=  10.260000  celldm(2)=   0.000000  celldm(3)=   0.000000
     celldm(4)=   0.000000  celldm(5)=   0.000000  celldm(6)=   0.000000

     crystal axes: (cart. coord. in units of alat)
               a(1) = (  -0.500000   0.000000   0.500000 )  
               a(2) = (   0.000000   0.500000   0.500000 )  
               a(3) = (  -0.500000   0.500000   0.000000 )  

     reciprocal axes: (cart. coord. in units 2 pi/alat)
               b(1) = ( -1.000000 -1.000000  1.000000 )  
               b(2) = (  1.000000  1.000000  1.000000 )  
               b(3) = ( -1.000000  1.000000 -1.000000 )  


     PseudoPot. # 1 for Si read from file:
     /home/guest/Rishi-Tushar/silicon-scf/pseudopotential/Si.pbe-n-rrkjus_psl.1.0.0.UPF
     MD5 check sum: 0b0bb1205258b0d07b9f9672cf965d36
     Pseudo is Ultrasoft + core correction, Zval =  4.0
     Generated using "atomic" code by A. Dal Corso  v.5.1
     Using radial grid of 1141 points,  6 beta functions with: 
                l(1) =   0
                l(2) =   0
                l(3) =   1
                l(4) =   1
                l(5) =   2
                l(6) =   2
     Q(r) pseudized with 0 coefficients 


     atomic species   valence    mass     pseudopotential
     Si                4.00    28.08600     Si( 1.00)

     48 Sym. Ops., with inversion, found (24 have fractional translation)



   Cartesian axes

     site n.     atom                  positions (alat units)
         1        Si     tau(   1) = (   0.0000000   0.0000000   0.0000000  )
         2        Si     tau(   2) = (   0.2500000   0.2500000   0.2500000  )

     number of k points=   182

     Number of k-points >= 100: set verbosity='high' to print them.

     Dense  grid:    12939 G-vectors     FFT dimensions: (  36,  36,  36)

     Estimated max dynamical RAM per process >      17.29 MB

     Estimated total dynamical RAM >      69.15 MB

     Initial potential from superposition of free atoms

     starting charge       7.9989, renormalised to       8.0000
     Starting wfcs are    8 randomized atomic wfcs

     total cpu time spent up to now is        1.4 secs

     Self-consistent Calculation

     iteration #  1     ecut=    50.00 Ry     beta= 0.60
     Davidson diagonalization with overlap
     ethr =  1.00E-02,  avg # of iterations =  2.0

     Threshold (ethr) on eigenvalues was too large:
     Diagonalizing with lowered threshold

     Davidson diagonalization with overlap
     ethr =  6.21E-04,  avg # of iterations =  1.4

     total cpu time spent up to now is        5.5 secs

     total energy              =     -22.83809605 Ry
     estimated scf accuracy    <       0.05374905 Ry

     iteration #  2     ecut=    50.00 Ry     beta= 0.60
     Davidson diagonalization with overlap
     ethr =  6.72E-04,  avg # of iterations =  1.0

     total cpu time spent up to now is        7.5 secs

     total energy              =     -22.83870814 Ry
     estimated scf accuracy    <       0.00617299 Ry

     iteration #  3     ecut=    50.00 Ry     beta= 0.60
     Davidson diagonalization with overlap
     ethr =  7.72E-05,  avg # of iterations =  2.1

     total cpu time spent up to now is       10.0 secs

     total energy              =     -22.83966998 Ry
     estimated scf accuracy    <       0.00014727 Ry

     iteration #  4     ecut=    50.00 Ry     beta= 0.60
     Davidson diagonalization with overlap
     ethr =  1.84E-06,  avg # of iterations =  4.5

     total cpu time spent up to now is       13.3 secs

     total energy              =     -22.83977790 Ry
     estimated scf accuracy    <       0.00002688 Ry

     iteration #  5     ecut=    50.00 Ry     beta= 0.60
     Davidson diagonalization with overlap
     ethr =  3.36E-07,  avg # of iterations =  3.0

     total cpu time spent up to now is       16.2 secs

     End of self-consistent calculation

     Number of k-points >= 100: set verbosity='high' to print the bands.

     highest occupied level (ev):     6.1738

!    total energy              =     -22.83978617 Ry
     estimated scf accuracy    <       0.00000054 Ry

     The total energy is the sum of the following terms:
     one-electron contribution =       5.17107386 Ry
     hartree contribution      =       1.09981824 Ry
     xc contribution           =     -12.30974866 Ry
     ewald contribution        =     -16.80092961 Ry

     convergence has been achieved in   5 iterations

     Writing all to output data dir /home/guest/Rishi-Tushar/silicon-scf/output/silicon.save/ :
     XML data file, charge density, pseudopotentials, collected wavefunctions

     init_run     :      1.47s CPU      1.31s WALL (       1 calls)
     electrons    :     17.07s CPU     14.76s WALL (       1 calls)

     Called by init_run:
     wfcinit      :      1.20s CPU      1.04s WALL (       1 calls)
     potinit      :      0.02s CPU      0.02s WALL (       1 calls)
     hinit0       :      0.21s CPU      0.21s WALL (       1 calls)

     Called by electrons:
     c_bands      :     13.43s CPU     11.65s WALL (       6 calls)
     sum_band     :      3.45s CPU      2.96s WALL (       6 calls)
     v_of_rho     :      0.07s CPU      0.06s WALL (       6 calls)
     newd         :      0.14s CPU      0.11s WALL (       6 calls)
     mix_rho      :      0.00s CPU      0.00s WALL (       6 calls)

     Called by c_bands:
     init_us_2    :      0.61s CPU      0.53s WALL (    2366 calls)
     cegterg      :     12.39s CPU     10.76s WALL (    1092 calls)

     Called by *egterg:
     cdiaghg      :      0.20s CPU      0.17s WALL (    3451 calls)
     h_psi        :     12.31s CPU     10.71s WALL (    3815 calls)
     s_psi        :      0.27s CPU      0.23s WALL (    3815 calls)
     g_psi        :      0.06s CPU      0.05s WALL (    2541 calls)

     Called by h_psi:
     h_psi:calbec :      2.95s CPU      2.49s WALL (    3815 calls)
     vloc_psi     :      9.04s CPU      7.95s WALL (    3815 calls)
                                        0.00s GPU  (    3815 calls)
     add_vuspsi   :      0.27s CPU      0.24s WALL (    3815 calls)

     General routines
     calbec       :      4.45s CPU      3.78s WALL (    4907 calls)
     fft          :      0.10s CPU      0.09s WALL (      67 calls)
     ffts         :      0.00s CPU      0.00s WALL (       6 calls)
     fftw         :      9.79s CPU      8.57s WALL (   32136 calls)

     Parallel routines

     PWSCF        :     18.73s CPU     16.63s WALL


   This run was terminated on:  15:58:24  12Jun2026            

=------------------------------------------------------------------------------=
   JOB DONE.
=------------------------------------------------------------------------------=
