
     Program PWSCF v.7.5 starts on 12Jun2026 at 15: 6:32 

     This program is part of the open-source Quantum ESPRESSO suite
     for quantum simulation of materials; please cite
         "P. Giannozzi et al., J. Phys.:Condens. Matter 21 395502 (2009);
         "P. Giannozzi et al., J. Phys.:Condens. Matter 29 465901 (2017);
         "P. Giannozzi et al., J. Chem. Phys. 152 154105 (2020);
          URL http://www.quantum-espresso.org", 
     in publications or presentations arising from this work. More details at
     http://www.quantum-espresso.org/quote

     Parallel version (MPI), running on     4 processors

     MPI processes distributed on     1 nodes
     13372 MiB available memory on the printing compute node when the environment starts

     Waiting for input...
     Reading input from standard input

     Current dimensions of program PWSCF are:
     Max number of different atomic species (ntypx) = 10
     Max number of k-points (npk) =  40000
     Max angular momentum in pseudopotentials (lmaxx) =  4

     R & G space division:  proc/nbgrp/npool/nimage =       4
     Subspace diagonalization in iterative solution of the eigenvalue problem:
     a serial algorithm will be used


     Parallelization info
     --------------------
     sticks:   dense  smooth     PW     G-vecs:    dense   smooth      PW
     Min          37      37     13                  284      284      70
     Max          38      38     14                  285      285      71
     Sum         151     151     55                 1139     1139     283

     Using Slab Decomposition



     bravais-lattice index     =            2
     lattice parameter (alat)  =      10.2600  a.u.
     unit-cell volume          =     270.0114 (a.u.)^3
     number of atoms/cell      =            2
     number of atomic types    =            1
     number of electrons       =         8.00
     number of Kohn-Sham states=            4
     kinetic-energy cutoff     =      10.0000  Ry
     charge density cutoff     =      40.0000  Ry
     scf convergence threshold =      1.0E-06
     mixing beta               =       0.6000
     number of iterations used =            8  plain     mixing
     Exchange-correlation= PBE
                           (   1   4   3   4   0   0   0)

     celldm(1)=  10.260000  celldm(2)=   0.000000  celldm(3)=   0.000000
     celldm(4)=   0.000000  celldm(5)=   0.000000  celldm(6)=   0.000000

     crystal axes: (cart. coord. in units of alat)
               a(1) = (  -0.500000   0.000000   0.500000 )  
               a(2) = (   0.000000   0.500000   0.500000 )  
               a(3) = (  -0.500000   0.500000   0.000000 )  

     reciprocal axes: (cart. coord. in units 2 pi/alat)
               b(1) = ( -1.000000 -1.000000  1.000000 )  
               b(2) = (  1.000000  1.000000  1.000000 )  
               b(3) = ( -1.000000  1.000000 -1.000000 )  


     PseudoPot. # 1 for Si read from file:
     /home/guest/Rishi-Tushar/silicon-scf/pseudopotential/Si.pbe-n-rrkjus_psl.1.0.0.UPF
     MD5 check sum: 0b0bb1205258b0d07b9f9672cf965d36
     Pseudo is Ultrasoft + core correction, Zval =  4.0
     Generated using "atomic" code by A. Dal Corso  v.5.1
     Using radial grid of 1141 points,  6 beta functions with: 
                l(1) =   0
                l(2) =   0
                l(3) =   1
                l(4) =   1
                l(5) =   2
                l(6) =   2
     Q(r) pseudized with 0 coefficients 


     atomic species   valence    mass     pseudopotential
     Si                4.00    28.08600     Si( 1.00)

     48 Sym. Ops., with inversion, found (24 have fractional translation)



   Cartesian axes

     site n.     atom                  positions (alat units)
         1        Si     tau(   1) = (   0.0000000   0.0000000   0.0000000  )
         2        Si     tau(   2) = (   0.2500000   0.2500000   0.2500000  )

     number of k points=    28
                       cart. coord. in units 2pi/alat
        k(    1) = (  -0.0833333   0.0833333   0.0833333), wk =   0.0185185
        k(    2) = (  -0.2500000   0.2500000  -0.0833333), wk =   0.0555556
        k(    3) = (  -0.4166667   0.4166667  -0.2500000), wk =   0.0555556
        k(    4) = (   0.4166667  -0.4166667   0.5833333), wk =   0.0555556
        k(    5) = (   0.2500000  -0.2500000   0.4166667), wk =   0.0555556
        k(    6) = (   0.0833333  -0.0833333   0.2500000), wk =   0.0555556
        k(    7) = (  -0.0833333   0.4166667   0.0833333), wk =   0.0555556
        k(    8) = (  -0.2500000   0.5833333  -0.0833333), wk =   0.1111111
        k(    9) = (   0.5833333  -0.2500000   0.7500000), wk =   0.1111111
        k(   10) = (   0.4166667  -0.0833333   0.5833333), wk =   0.1111111
        k(   11) = (   0.2500000   0.0833333   0.4166667), wk =   0.1111111
        k(   12) = (  -0.0833333   0.7500000   0.0833333), wk =   0.0555556
        k(   13) = (   0.7500000  -0.0833333   0.9166667), wk =   0.1111111
        k(   14) = (   0.5833333   0.0833333   0.7500000), wk =   0.1111111
        k(   15) = (   0.4166667   0.2500000   0.5833333), wk =   0.1111111
        k(   16) = (  -0.0833333  -0.9166667   0.0833333), wk =   0.0555556
        k(   17) = (  -0.2500000  -0.7500000  -0.0833333), wk =   0.1111111
        k(   18) = (  -0.0833333  -0.5833333   0.0833333), wk =   0.0555556
        k(   19) = (  -0.2500000   0.2500000   0.2500000), wk =   0.0185185
        k(   20) = (  -0.4166667   0.4166667   0.0833333), wk =   0.0555556
        k(   21) = (   0.4166667  -0.4166667   0.9166667), wk =   0.0555556
        k(   22) = (   0.2500000  -0.2500000   0.7500000), wk =   0.0555556
        k(   23) = (  -0.2500000   0.5833333   0.2500000), wk =   0.0555556
        k(   24) = (   0.5833333  -0.2500000   1.0833333), wk =   0.1111111
        k(   25) = (   0.4166667  -0.0833333   0.9166667), wk =   0.1111111
        k(   26) = (  -0.2500000  -1.0833333   0.2500000), wk =   0.0555556
        k(   27) = (  -0.4166667   0.4166667   0.4166667), wk =   0.0185185
        k(   28) = (   0.4166667  -0.4166667   1.2500000), wk =   0.0555556

     Dense  grid:     1139 G-vectors     FFT dimensions: (  16,  16,  16)

     Estimated max dynamical RAM per process >       1.60 MB

     Estimated total dynamical RAM >       6.40 MB

     Check: negative core charge=   -0.000243

     Initial potential from superposition of free atoms

     starting charge       7.9989, renormalised to       8.0000
     Starting wfcs are    8 randomized atomic wfcs

     total cpu time spent up to now is        0.2 secs

     Self-consistent Calculation

     iteration #  1     ecut=    10.00 Ry     beta= 0.60
     Davidson diagonalization with overlap
     ethr =  1.00E-02,  avg # of iterations =  2.0

     Threshold (ethr) on eigenvalues was too large:
     Diagonalizing with lowered threshold

     Davidson diagonalization with overlap
     ethr =  6.38E-04,  avg # of iterations =  1.1

     total cpu time spent up to now is        0.3 secs

     total energy              =     -22.84197175 Ry
     estimated scf accuracy    <       0.05429648 Ry

     iteration #  2     ecut=    10.00 Ry     beta= 0.60
     Davidson diagonalization with overlap
     ethr =  6.79E-04,  avg # of iterations =  1.0

     total cpu time spent up to now is        0.3 secs

     total energy              =     -22.84207723 Ry
     estimated scf accuracy    <       0.00606449 Ry

     iteration #  3     ecut=    10.00 Ry     beta= 0.60
     Davidson diagonalization with overlap
     ethr =  7.58E-05,  avg # of iterations =  2.0

     total cpu time spent up to now is        0.3 secs

     total energy              =     -22.84279775 Ry
     estimated scf accuracy    <       0.00013726 Ry

     iteration #  4     ecut=    10.00 Ry     beta= 0.60
     Davidson diagonalization with overlap
     ethr =  1.72E-06,  avg # of iterations =  4.3

     total cpu time spent up to now is        0.4 secs

     total energy              =     -22.84287878 Ry
     estimated scf accuracy    <       0.00003067 Ry

     iteration #  5     ecut=    10.00 Ry     beta= 0.60
     Davidson diagonalization with overlap
     ethr =  3.83E-07,  avg # of iterations =  2.7

     total cpu time spent up to now is        0.4 secs

     total energy              =     -22.84288597 Ry
     estimated scf accuracy    <       0.00000121 Ry

     iteration #  6     ecut=    10.00 Ry     beta= 0.60
     Davidson diagonalization with overlap
     ethr =  1.51E-08,  avg # of iterations =  3.6

     total cpu time spent up to now is        0.5 secs

     End of self-consistent calculation

          k =-0.0833 0.0833 0.0833 (   153 PWs)   bands (ev):

    -5.6448   5.4049   6.1250   6.1250

          k =-0.2500 0.2500-0.0833 (   147 PWs)   bands (ev):

    -5.1662   3.3088   4.8713   5.9042

          k =-0.4167 0.4167-0.2500 (   147 PWs)   bands (ev):

    -4.0698   0.5195   4.4003   5.2515

          k = 0.4167-0.4167 0.5833 (   147 PWs)   bands (ev):

    -3.3675  -0.6327   4.4677   4.8644

          k = 0.2500-0.2500 0.4167 (   145 PWs)   bands (ev):

    -4.4829   1.3737   4.9322   4.9728

          k = 0.0833-0.0833 0.2500 (   150 PWs)   bands (ev):

    -5.4032   4.3302   5.4660   5.6574

          k =-0.0833 0.4167 0.0833 (   143 PWs)   bands (ev):

    -4.9232   3.1256   4.7152   4.7250

          k =-0.2500 0.5833-0.0833 (   145 PWs)   bands (ev):

    -4.0096   1.2681   3.3798   4.3309

          k = 0.5833-0.2500 0.7500 (   145 PWs)   bands (ev):

    -2.8858  -0.4983   2.7786   4.0978

          k = 0.4167-0.0833 0.5833 (   143 PWs)   bands (ev):

    -3.6122   0.5710   2.7331   4.5926

          k = 0.2500 0.0833 0.4167 (   144 PWs)   bands (ev):

    -4.6972   2.2765   4.0863   5.2718

          k =-0.0833 0.7500 0.0833 (   139 PWs)   bands (ev):

    -3.2928   0.4413   3.3370   3.6762

          k = 0.7500-0.0833 0.9167 (   140 PWs)   bands (ev):

    -2.0887  -0.9069   2.4904   3.2677

          k = 0.5833 0.0833 0.7500 (   144 PWs)   bands (ev):

    -2.4629  -0.5739   2.0069   3.8204

          k = 0.4167 0.2500 0.5833 (   145 PWs)   bands (ev):

    -3.5000  -0.1251   3.6863   4.6880

          k =-0.0833-0.9167 0.0833 (   142 PWs)   bands (ev):

    -2.1831  -0.9172   3.0621   3.4551

          k =-0.2500-0.7500-0.0833 (   143 PWs)   bands (ev):

    -3.1242   0.2143   2.8166   3.6130

          k =-0.0833-0.5833 0.0833 (   141 PWs)   bands (ev):

    -4.2149   1.8153   3.8913   4.1073

          k =-0.2500 0.2500 0.2500 (   150 PWs)   bands (ev):

    -4.9368   2.3166   5.4922   5.4922

          k =-0.4167 0.4167 0.0833 (   146 PWs)   bands (ev):

    -4.2535   1.3820   3.3444   5.3186

          k = 0.4167-0.4167 0.9167 (   141 PWs)   bands (ev):

    -3.0649  -0.0666   2.2301   4.5224

          k = 0.2500-0.2500 0.7500 (   143 PWs)   bands (ev):

    -3.0140  -0.1480   2.7124   4.0339

          k =-0.2500 0.5833 0.2500 (   146 PWs)   bands (ev):

    -3.8278   0.5645   3.8187   4.4113

          k = 0.5833-0.2500 1.0833 (   143 PWs)   bands (ev):

    -2.8196  -0.1765   2.3282   3.6138

          k = 0.4167-0.0833 0.9167 (   146 PWs)   bands (ev):

    -1.9846  -0.9167   2.1595   2.9389

          k =-0.2500-1.0833 0.2500 (   142 PWs)   bands (ev):

    -2.1926  -0.8233   2.0331   3.8350

          k =-0.4167 0.4167 0.4167 (   147 PWs)   bands (ev):

    -3.7389  -0.2308   5.0931   5.0931

          k = 0.4167-0.4167 1.2500 (   145 PWs)   bands (ev):

    -3.1287  -0.5316   3.2591   4.6488

     highest occupied level (ev):     6.1250

!    total energy              =     -22.84288652 Ry
     estimated scf accuracy    <       0.00000022 Ry

     The total energy is the sum of the following terms:
     one-electron contribution =       5.18651964 Ry
     hartree contribution      =       1.10235176 Ry
     xc contribution           =     -12.33082833 Ry
     ewald contribution        =     -16.80092958 Ry

     convergence has been achieved in   6 iterations

     Writing all to output data dir /home/guest/Rishi-Tushar/silicon-scf/output/silicon.save/ :
     XML data file, charge density, pseudopotentials, collected wavefunctions

     init_run     :      0.10s CPU      0.10s WALL (       1 calls)
     electrons    :      0.29s CPU      0.28s WALL (       1 calls)

     Called by init_run:
     wfcinit      :      0.03s CPU      0.02s WALL (       1 calls)
     potinit      :      0.00s CPU      0.00s WALL (       1 calls)
     hinit0       :      0.07s CPU      0.07s WALL (       1 calls)

     Called by electrons:
     c_bands      :      0.22s CPU      0.22s WALL (       7 calls)
     sum_band     :      0.05s CPU      0.04s WALL (       7 calls)
     v_of_rho     :      0.01s CPU      0.01s WALL (       7 calls)
     newd         :      0.01s CPU      0.01s WALL (       7 calls)
     mix_rho      :      0.00s CPU      0.00s WALL (       7 calls)

     Called by c_bands:
     init_us_2    :      0.01s CPU      0.01s WALL (     420 calls)
     cegterg      :      0.20s CPU      0.20s WALL (     196 calls)

     Called by *egterg:
     cdiaghg      :      0.03s CPU      0.03s WALL (     634 calls)
     h_psi        :      0.15s CPU      0.14s WALL (     690 calls)
     s_psi        :      0.01s CPU      0.01s WALL (     690 calls)
     g_psi        :      0.00s CPU      0.00s WALL (     466 calls)

     Called by h_psi:
     h_psi:calbec :      0.02s CPU      0.01s WALL (     690 calls)
     vloc_psi     :      0.12s CPU      0.11s WALL (     690 calls)
                                        0.00s GPU  (     690 calls)
     add_vuspsi   :      0.01s CPU      0.01s WALL (     690 calls)

     General routines
     calbec       :      0.02s CPU      0.02s WALL (     886 calls)
     fft          :      0.01s CPU      0.01s WALL (      78 calls)
     ffts         :      0.00s CPU      0.00s WALL (       7 calls)
     fftw         :      0.12s CPU      0.11s WALL (    5714 calls)

     Parallel routines

     PWSCF        :      0.51s CPU      0.50s WALL


   This run was terminated on:  15: 6:33  12Jun2026            

=------------------------------------------------------------------------------=
   JOB DONE.
=------------------------------------------------------------------------------=
