
     Program PWSCF v.7.5 starts on 12Jun2026 at 15: 8:27 

     This program is part of the open-source Quantum ESPRESSO suite
     for quantum simulation of materials; please cite
         "P. Giannozzi et al., J. Phys.:Condens. Matter 21 395502 (2009);
         "P. Giannozzi et al., J. Phys.:Condens. Matter 29 465901 (2017);
         "P. Giannozzi et al., J. Chem. Phys. 152 154105 (2020);
          URL http://www.quantum-espresso.org", 
     in publications or presentations arising from this work. More details at
     http://www.quantum-espresso.org/quote

     Parallel version (MPI), running on     4 processors

     MPI processes distributed on     1 nodes
     13369 MiB available memory on the printing compute node when the environment starts

     Waiting for input...
     Reading input from standard input

     Current dimensions of program PWSCF are:
     Max number of different atomic species (ntypx) = 10
     Max number of k-points (npk) =  40000
     Max angular momentum in pseudopotentials (lmaxx) =  4

     R & G space division:  proc/nbgrp/npool/nimage =       4
     Subspace diagonalization in iterative solution of the eigenvalue problem:
     a serial algorithm will be used


     Parallelization info
     --------------------
     sticks:   dense  smooth     PW     G-vecs:    dense   smooth      PW
     Min          73      73     27                  821      821     175
     Max          74      74     28                  823      823     176
     Sum         295     295    109                 3287     3287     701

     Using Slab Decomposition



     bravais-lattice index     =            2
     lattice parameter (alat)  =      10.2600  a.u.
     unit-cell volume          =     270.0114 (a.u.)^3
     number of atoms/cell      =            2
     number of atomic types    =            1
     number of electrons       =         8.00
     number of Kohn-Sham states=            4
     kinetic-energy cutoff     =      20.0000  Ry
     charge density cutoff     =      80.0000  Ry
     scf convergence threshold =      1.0E-06
     mixing beta               =       0.6000
     number of iterations used =            8  plain     mixing
     Exchange-correlation= PBE
                           (   1   4   3   4   0   0   0)

     celldm(1)=  10.260000  celldm(2)=   0.000000  celldm(3)=   0.000000
     celldm(4)=   0.000000  celldm(5)=   0.000000  celldm(6)=   0.000000

     crystal axes: (cart. coord. in units of alat)
               a(1) = (  -0.500000   0.000000   0.500000 )  
               a(2) = (   0.000000   0.500000   0.500000 )  
               a(3) = (  -0.500000   0.500000   0.000000 )  

     reciprocal axes: (cart. coord. in units 2 pi/alat)
               b(1) = ( -1.000000 -1.000000  1.000000 )  
               b(2) = (  1.000000  1.000000  1.000000 )  
               b(3) = ( -1.000000  1.000000 -1.000000 )  


     PseudoPot. # 1 for Si read from file:
     /home/guest/Rishi-Tushar/silicon-scf/pseudopotential/Si.pbe-n-rrkjus_psl.1.0.0.UPF
     MD5 check sum: 0b0bb1205258b0d07b9f9672cf965d36
     Pseudo is Ultrasoft + core correction, Zval =  4.0
     Generated using "atomic" code by A. Dal Corso  v.5.1
     Using radial grid of 1141 points,  6 beta functions with: 
                l(1) =   0
                l(2) =   0
                l(3) =   1
                l(4) =   1
                l(5) =   2
                l(6) =   2
     Q(r) pseudized with 0 coefficients 


     atomic species   valence    mass     pseudopotential
     Si                4.00    28.08600     Si( 1.00)

     48 Sym. Ops., with inversion, found (24 have fractional translation)



   Cartesian axes

     site n.     atom                  positions (alat units)
         1        Si     tau(   1) = (   0.0000000   0.0000000   0.0000000  )
         2        Si     tau(   2) = (   0.2500000   0.2500000   0.2500000  )

     number of k points=    28
                       cart. coord. in units 2pi/alat
        k(    1) = (  -0.0833333   0.0833333   0.0833333), wk =   0.0185185
        k(    2) = (  -0.2500000   0.2500000  -0.0833333), wk =   0.0555556
        k(    3) = (  -0.4166667   0.4166667  -0.2500000), wk =   0.0555556
        k(    4) = (   0.4166667  -0.4166667   0.5833333), wk =   0.0555556
        k(    5) = (   0.2500000  -0.2500000   0.4166667), wk =   0.0555556
        k(    6) = (   0.0833333  -0.0833333   0.2500000), wk =   0.0555556
        k(    7) = (  -0.0833333   0.4166667   0.0833333), wk =   0.0555556
        k(    8) = (  -0.2500000   0.5833333  -0.0833333), wk =   0.1111111
        k(    9) = (   0.5833333  -0.2500000   0.7500000), wk =   0.1111111
        k(   10) = (   0.4166667  -0.0833333   0.5833333), wk =   0.1111111
        k(   11) = (   0.2500000   0.0833333   0.4166667), wk =   0.1111111
        k(   12) = (  -0.0833333   0.7500000   0.0833333), wk =   0.0555556
        k(   13) = (   0.7500000  -0.0833333   0.9166667), wk =   0.1111111
        k(   14) = (   0.5833333   0.0833333   0.7500000), wk =   0.1111111
        k(   15) = (   0.4166667   0.2500000   0.5833333), wk =   0.1111111
        k(   16) = (  -0.0833333  -0.9166667   0.0833333), wk =   0.0555556
        k(   17) = (  -0.2500000  -0.7500000  -0.0833333), wk =   0.1111111
        k(   18) = (  -0.0833333  -0.5833333   0.0833333), wk =   0.0555556
        k(   19) = (  -0.2500000   0.2500000   0.2500000), wk =   0.0185185
        k(   20) = (  -0.4166667   0.4166667   0.0833333), wk =   0.0555556
        k(   21) = (   0.4166667  -0.4166667   0.9166667), wk =   0.0555556
        k(   22) = (   0.2500000  -0.2500000   0.7500000), wk =   0.0555556
        k(   23) = (  -0.2500000   0.5833333   0.2500000), wk =   0.0555556
        k(   24) = (   0.5833333  -0.2500000   1.0833333), wk =   0.1111111
        k(   25) = (   0.4166667  -0.0833333   0.9166667), wk =   0.1111111
        k(   26) = (  -0.2500000  -1.0833333   0.2500000), wk =   0.0555556
        k(   27) = (  -0.4166667   0.4166667   0.4166667), wk =   0.0185185
        k(   28) = (   0.4166667  -0.4166667   1.2500000), wk =   0.0555556

     Dense  grid:     3287 G-vectors     FFT dimensions: (  24,  24,  24)

     Estimated max dynamical RAM per process >       3.90 MB

     Estimated total dynamical RAM >      15.59 MB

     Check: negative core charge=   -0.000010

     Initial potential from superposition of free atoms

     starting charge       7.9989, renormalised to       8.0000
     Starting wfcs are    8 randomized atomic wfcs

     total cpu time spent up to now is        0.3 secs

     Self-consistent Calculation

     iteration #  1     ecut=    20.00 Ry     beta= 0.60
     Davidson diagonalization with overlap
     ethr =  1.00E-02,  avg # of iterations =  2.0

     Threshold (ethr) on eigenvalues was too large:
     Diagonalizing with lowered threshold

     Davidson diagonalization with overlap
     ethr =  6.21E-04,  avg # of iterations =  1.5

     total cpu time spent up to now is        0.5 secs

     total energy              =     -22.83612656 Ry
     estimated scf accuracy    <       0.05385135 Ry

     iteration #  2     ecut=    20.00 Ry     beta= 0.60
     Davidson diagonalization with overlap
     ethr =  6.73E-04,  avg # of iterations =  1.0

     total cpu time spent up to now is        0.6 secs

     total energy              =     -22.83677735 Ry
     estimated scf accuracy    <       0.00608057 Ry

     iteration #  3     ecut=    20.00 Ry     beta= 0.60
     Davidson diagonalization with overlap
     ethr =  7.60E-05,  avg # of iterations =  2.0

     total cpu time spent up to now is        0.7 secs

     total energy              =     -22.83769943 Ry
     estimated scf accuracy    <       0.00014181 Ry

     iteration #  4     ecut=    20.00 Ry     beta= 0.60
     Davidson diagonalization with overlap
     ethr =  1.77E-06,  avg # of iterations =  4.5

     total cpu time spent up to now is        0.8 secs

     total energy              =     -22.83780462 Ry
     estimated scf accuracy    <       0.00001793 Ry

     iteration #  5     ecut=    20.00 Ry     beta= 0.60
     Davidson diagonalization with overlap
     ethr =  2.24E-07,  avg # of iterations =  3.4

     total cpu time spent up to now is        1.0 secs

     End of self-consistent calculation

          k =-0.0833 0.0833 0.0833 (   405 PWs)   bands (ev):

    -5.6589   5.3620   6.0784   6.0784

          k =-0.2500 0.2500-0.0833 (   399 PWs)   bands (ev):

    -5.1806   3.2733   4.8310   5.8671

          k =-0.4167 0.4167-0.2500 (   409 PWs)   bands (ev):

    -4.0837   0.4958   4.3661   5.2239

          k = 0.4167-0.4167 0.5833 (   407 PWs)   bands (ev):

    -3.3802  -0.6557   4.4344   4.8399

          k = 0.2500-0.2500 0.4167 (   405 PWs)   bands (ev):

    -4.4974   1.3471   4.8992   4.9375

          k = 0.0833-0.0833 0.2500 (   401 PWs)   bands (ev):

    -5.4174   4.2908   5.4249   5.6169

          k =-0.0833 0.4167 0.0833 (   404 PWs)   bands (ev):

    -4.9388   3.0913   4.6763   4.6883

          k =-0.2500 0.5833-0.0833 (   409 PWs)   bands (ev):

    -4.0247   1.2437   3.3465   4.2992

          k = 0.5833-0.2500 0.7500 (   409 PWs)   bands (ev):

    -2.9013  -0.5205   2.7442   4.0696

          k = 0.4167-0.0833 0.5833 (   411 PWs)   bands (ev):

    -3.6281   0.5458   2.6990   4.5608

          k = 0.2500 0.0833 0.4167 (   404 PWs)   bands (ev):

    -4.7123   2.2465   4.0486   5.2364

          k =-0.0833 0.7500 0.0833 (   413 PWs)   bands (ev):

    -3.3106   0.4178   3.3090   3.6525

          k = 0.7500-0.0833 0.9167 (   411 PWs)   bands (ev):

    -2.1085  -0.9281   2.4594   3.2418

          k = 0.5833 0.0833 0.7500 (   405 PWs)   bands (ev):

    -2.4794  -0.5948   1.9740   3.7916

          k = 0.4167 0.2500 0.5833 (   407 PWs)   bands (ev):

    -3.5147  -0.1489   3.6521   4.6600

          k =-0.0833-0.9167 0.0833 (   413 PWs)   bands (ev):

    -2.2017  -0.9364   3.0374   3.4360

          k =-0.2500-0.7500-0.0833 (   410 PWs)   bands (ev):

    -3.1408   0.1924   2.7850   3.5843

          k =-0.0833-0.5833 0.0833 (   413 PWs)   bands (ev):

    -4.2314   1.7885   3.8584   4.0772

          k =-0.2500 0.2500 0.2500 (   401 PWs)   bands (ev):

    -4.9501   2.2875   5.4586   5.4586

          k =-0.4167 0.4167 0.0833 (   404 PWs)   bands (ev):

    -4.2683   1.3545   3.3105   5.2888

          k = 0.4167-0.4167 0.9167 (   406 PWs)   bands (ev):

    -3.0832  -0.0903   2.1953   4.4948

          k = 0.2500-0.2500 0.7500 (   412 PWs)   bands (ev):

    -3.0312  -0.1698   2.6786   4.0087

          k =-0.2500 0.5833 0.2500 (   412 PWs)   bands (ev):

    -3.8425   0.5414   3.7827   4.3846

          k = 0.5833-0.2500 1.0833 (   409 PWs)   bands (ev):

    -2.8354  -0.2006   2.2953   3.5815

          k = 0.4167-0.0833 0.9167 (   405 PWs)   bands (ev):

    -1.9999  -0.9359   2.1274   2.9085

          k =-0.2500-1.0833 0.2500 (   410 PWs)   bands (ev):

    -2.2115  -0.8437   2.0003   3.8130

          k =-0.4167 0.4167 0.4167 (   413 PWs)   bands (ev):

    -3.7523  -0.2530   5.0671   5.0671

          k = 0.4167-0.4167 1.2500 (   406 PWs)   bands (ev):

    -3.1437  -0.5541   3.2232   4.6231

     highest occupied level (ev):     6.0784

!    total energy              =     -22.83781235 Ry
     estimated scf accuracy    <       0.00000065 Ry

     The total energy is the sum of the following terms:
     one-electron contribution =       5.17371104 Ry
     hartree contribution      =       1.09915107 Ry
     xc contribution           =     -12.30974486 Ry
     ewald contribution        =     -16.80092959 Ry

     convergence has been achieved in   5 iterations

     Writing all to output data dir /home/guest/Rishi-Tushar/silicon-scf/output/silicon.save/ :
     XML data file, charge density, pseudopotentials, collected wavefunctions

     init_run     :      0.21s CPU      0.21s WALL (       1 calls)
     electrons    :      0.69s CPU      0.63s WALL (       1 calls)

     Called by init_run:
     wfcinit      :      0.06s CPU      0.05s WALL (       1 calls)
     potinit      :      0.01s CPU      0.01s WALL (       1 calls)
     hinit0       :      0.14s CPU      0.14s WALL (       1 calls)

     Called by electrons:
     c_bands      :      0.53s CPU      0.49s WALL (       6 calls)
     sum_band     :      0.11s CPU      0.10s WALL (       6 calls)
     v_of_rho     :      0.02s CPU      0.02s WALL (       6 calls)
     newd         :      0.03s CPU      0.03s WALL (       6 calls)
     mix_rho      :      0.00s CPU      0.00s WALL (       6 calls)

     Called by c_bands:
     init_us_2    :      0.02s CPU      0.02s WALL (     364 calls)
     cegterg      :      0.49s CPU      0.45s WALL (     168 calls)

     Called by *egterg:
     cdiaghg      :      0.03s CPU      0.03s WALL (     542 calls)
     h_psi        :      0.45s CPU      0.41s WALL (     598 calls)
     s_psi        :      0.02s CPU      0.02s WALL (     598 calls)
     g_psi        :      0.00s CPU      0.00s WALL (     402 calls)

     Called by h_psi:
     h_psi:calbec :      0.02s CPU      0.02s WALL (     598 calls)
     vloc_psi     :      0.40s CPU      0.37s WALL (     598 calls)
                                        0.00s GPU  (     598 calls)
     add_vuspsi   :      0.02s CPU      0.02s WALL (     598 calls)

     General routines
     calbec       :      0.03s CPU      0.03s WALL (     766 calls)
     fft          :      0.06s CPU      0.06s WALL (      67 calls)
     ffts         :      0.00s CPU      0.00s WALL (       6 calls)
     fftw         :      0.43s CPU      0.39s WALL (    4984 calls)

     Parallel routines

     PWSCF        :      1.02s CPU      0.97s WALL


   This run was terminated on:  15: 8:28  12Jun2026            

=------------------------------------------------------------------------------=
   JOB DONE.
=------------------------------------------------------------------------------=
