
     Program PWSCF v.7.5 starts on 12Jun2026 at 15:10:19 

     This program is part of the open-source Quantum ESPRESSO suite
     for quantum simulation of materials; please cite
         "P. Giannozzi et al., J. Phys.:Condens. Matter 21 395502 (2009);
         "P. Giannozzi et al., J. Phys.:Condens. Matter 29 465901 (2017);
         "P. Giannozzi et al., J. Chem. Phys. 152 154105 (2020);
          URL http://www.quantum-espresso.org", 
     in publications or presentations arising from this work. More details at
     http://www.quantum-espresso.org/quote

     Parallel version (MPI), running on     4 processors

     MPI processes distributed on     1 nodes
     13359 MiB available memory on the printing compute node when the environment starts

     Waiting for input...
     Reading input from standard input

     Current dimensions of program PWSCF are:
     Max number of different atomic species (ntypx) = 10
     Max number of k-points (npk) =  40000
     Max angular momentum in pseudopotentials (lmaxx) =  4

     R & G space division:  proc/nbgrp/npool/nimage =       4
     Subspace diagonalization in iterative solution of the eigenvalue problem:
     a serial algorithm will be used


     Parallelization info
     --------------------
     sticks:   dense  smooth     PW     G-vecs:    dense   smooth      PW
     Min         256     256     77                 5332     5332     881
     Max         257     257     79                 5333     5333     882
     Sum        1027    1027    313                21331    21331    3527

     Using Slab Decomposition



     bravais-lattice index     =            2
     lattice parameter (alat)  =      10.2600  a.u.
     unit-cell volume          =     270.0114 (a.u.)^3
     number of atoms/cell      =            2
     number of atomic types    =            1
     number of electrons       =         8.00
     number of Kohn-Sham states=            4
     kinetic-energy cutoff     =      70.0000  Ry
     charge density cutoff     =     280.0000  Ry
     scf convergence threshold =      1.0E-06
     mixing beta               =       0.6000
     number of iterations used =            8  plain     mixing
     Exchange-correlation= PBE
                           (   1   4   3   4   0   0   0)

     celldm(1)=  10.260000  celldm(2)=   0.000000  celldm(3)=   0.000000
     celldm(4)=   0.000000  celldm(5)=   0.000000  celldm(6)=   0.000000

     crystal axes: (cart. coord. in units of alat)
               a(1) = (  -0.500000   0.000000   0.500000 )  
               a(2) = (   0.000000   0.500000   0.500000 )  
               a(3) = (  -0.500000   0.500000   0.000000 )  

     reciprocal axes: (cart. coord. in units 2 pi/alat)
               b(1) = ( -1.000000 -1.000000  1.000000 )  
               b(2) = (  1.000000  1.000000  1.000000 )  
               b(3) = ( -1.000000  1.000000 -1.000000 )  


     PseudoPot. # 1 for Si read from file:
     /home/guest/Rishi-Tushar/silicon-scf/pseudopotential/Si.pbe-n-rrkjus_psl.1.0.0.UPF
     MD5 check sum: 0b0bb1205258b0d07b9f9672cf965d36
     Pseudo is Ultrasoft + core correction, Zval =  4.0
     Generated using "atomic" code by A. Dal Corso  v.5.1
     Using radial grid of 1141 points,  6 beta functions with: 
                l(1) =   0
                l(2) =   0
                l(3) =   1
                l(4) =   1
                l(5) =   2
                l(6) =   2
     Q(r) pseudized with 0 coefficients 


     atomic species   valence    mass     pseudopotential
     Si                4.00    28.08600     Si( 1.00)

     48 Sym. Ops., with inversion, found (24 have fractional translation)



   Cartesian axes

     site n.     atom                  positions (alat units)
         1        Si     tau(   1) = (   0.0000000   0.0000000   0.0000000  )
         2        Si     tau(   2) = (   0.2500000   0.2500000   0.2500000  )

     number of k points=    28
                       cart. coord. in units 2pi/alat
        k(    1) = (  -0.0833333   0.0833333   0.0833333), wk =   0.0185185
        k(    2) = (  -0.2500000   0.2500000  -0.0833333), wk =   0.0555556
        k(    3) = (  -0.4166667   0.4166667  -0.2500000), wk =   0.0555556
        k(    4) = (   0.4166667  -0.4166667   0.5833333), wk =   0.0555556
        k(    5) = (   0.2500000  -0.2500000   0.4166667), wk =   0.0555556
        k(    6) = (   0.0833333  -0.0833333   0.2500000), wk =   0.0555556
        k(    7) = (  -0.0833333   0.4166667   0.0833333), wk =   0.0555556
        k(    8) = (  -0.2500000   0.5833333  -0.0833333), wk =   0.1111111
        k(    9) = (   0.5833333  -0.2500000   0.7500000), wk =   0.1111111
        k(   10) = (   0.4166667  -0.0833333   0.5833333), wk =   0.1111111
        k(   11) = (   0.2500000   0.0833333   0.4166667), wk =   0.1111111
        k(   12) = (  -0.0833333   0.7500000   0.0833333), wk =   0.0555556
        k(   13) = (   0.7500000  -0.0833333   0.9166667), wk =   0.1111111
        k(   14) = (   0.5833333   0.0833333   0.7500000), wk =   0.1111111
        k(   15) = (   0.4166667   0.2500000   0.5833333), wk =   0.1111111
        k(   16) = (  -0.0833333  -0.9166667   0.0833333), wk =   0.0555556
        k(   17) = (  -0.2500000  -0.7500000  -0.0833333), wk =   0.1111111
        k(   18) = (  -0.0833333  -0.5833333   0.0833333), wk =   0.0555556
        k(   19) = (  -0.2500000   0.2500000   0.2500000), wk =   0.0185185
        k(   20) = (  -0.4166667   0.4166667   0.0833333), wk =   0.0555556
        k(   21) = (   0.4166667  -0.4166667   0.9166667), wk =   0.0555556
        k(   22) = (   0.2500000  -0.2500000   0.7500000), wk =   0.0555556
        k(   23) = (  -0.2500000   0.5833333   0.2500000), wk =   0.0555556
        k(   24) = (   0.5833333  -0.2500000   1.0833333), wk =   0.1111111
        k(   25) = (   0.4166667  -0.0833333   0.9166667), wk =   0.1111111
        k(   26) = (  -0.2500000  -1.0833333   0.2500000), wk =   0.0555556
        k(   27) = (  -0.4166667   0.4166667   0.4166667), wk =   0.0185185
        k(   28) = (   0.4166667  -0.4166667   1.2500000), wk =   0.0555556

     Dense  grid:    21331 G-vectors     FFT dimensions: (  40,  40,  40)

     Estimated max dynamical RAM per process >      21.51 MB

     Estimated total dynamical RAM >      86.02 MB

     Initial potential from superposition of free atoms

     starting charge       7.9989, renormalised to       8.0000
     Starting wfcs are    8 randomized atomic wfcs

     total cpu time spent up to now is        0.7 secs

     Self-consistent Calculation

     iteration #  1     ecut=    70.00 Ry     beta= 0.60
     Davidson diagonalization with overlap
     ethr =  1.00E-02,  avg # of iterations =  2.0

     Threshold (ethr) on eigenvalues was too large:
     Diagonalizing with lowered threshold

     Davidson diagonalization with overlap
     ethr =  6.20E-04,  avg # of iterations =  1.3

     total cpu time spent up to now is        1.5 secs

     total energy              =     -22.83806906 Ry
     estimated scf accuracy    <       0.05365270 Ry

     iteration #  2     ecut=    70.00 Ry     beta= 0.60
     Davidson diagonalization with overlap
     ethr =  6.71E-04,  avg # of iterations =  1.0

     total cpu time spent up to now is        1.9 secs

     total energy              =     -22.83873265 Ry
     estimated scf accuracy    <       0.00615222 Ry

     iteration #  3     ecut=    70.00 Ry     beta= 0.60
     Davidson diagonalization with overlap
     ethr =  7.69E-05,  avg # of iterations =  2.1

     total cpu time spent up to now is        2.4 secs

     total energy              =     -22.83968571 Ry
     estimated scf accuracy    <       0.00014238 Ry

     iteration #  4     ecut=    70.00 Ry     beta= 0.60
     Davidson diagonalization with overlap
     ethr =  1.78E-06,  avg # of iterations =  4.8

     total cpu time spent up to now is        3.0 secs

     total energy              =     -22.83981052 Ry
     estimated scf accuracy    <       0.00001945 Ry

     iteration #  5     ecut=    70.00 Ry     beta= 0.60
     Davidson diagonalization with overlap
     ethr =  2.43E-07,  avg # of iterations =  3.0

     total cpu time spent up to now is        3.5 secs

     End of self-consistent calculation

          k =-0.0833 0.0833 0.0833 (  2697 PWs)   bands (ev):

    -5.6641   5.3528   6.0682   6.0683

          k =-0.2500 0.2500-0.0833 (  2676 PWs)   bands (ev):

    -5.1856   3.2674   4.8245   5.8581

          k =-0.4167 0.4167-0.2500 (  2660 PWs)   bands (ev):

    -4.0883   0.4918   4.3605   5.2176

          k = 0.4167-0.4167 0.5833 (  2672 PWs)   bands (ev):

    -3.3849  -0.6594   4.4289   4.8343

          k = 0.2500-0.2500 0.4167 (  2679 PWs)   bands (ev):

    -4.5022   1.3426   4.8932   4.9309

          k = 0.0833-0.0833 0.2500 (  2690 PWs)   bands (ev):

    -5.4226   4.2835   5.4169   5.6083

          k =-0.0833 0.4167 0.0833 (  2671 PWs)   bands (ev):

    -4.9436   3.0852   4.6701   4.6826

          k =-0.2500 0.5833-0.0833 (  2671 PWs)   bands (ev):

    -4.0293   1.2387   3.3421   4.2943

          k = 0.5833-0.2500 0.7500 (  2668 PWs)   bands (ev):

    -2.9060  -0.5246   2.7397   4.0649

          k = 0.4167-0.0833 0.5833 (  2670 PWs)   bands (ev):

    -3.6327   0.5411   2.6949   4.5554

          k = 0.2500 0.0833 0.4167 (  2668 PWs)   bands (ev):

    -4.7171   2.2413   4.0434   5.2295

          k =-0.0833 0.7500 0.0833 (  2674 PWs)   bands (ev):

    -3.3151   0.4124   3.3051   3.6487

          k = 0.7500-0.0833 0.9167 (  2662 PWs)   bands (ev):

    -2.1131  -0.9331   2.4559   3.2380

          k = 0.5833 0.0833 0.7500 (  2667 PWs)   bands (ev):

    -2.4842  -0.5995   1.9703   3.7871

          k = 0.4167 0.2500 0.5833 (  2668 PWs)   bands (ev):

    -3.5193  -0.1528   3.6469   4.6545

          k =-0.0833-0.9167 0.0833 (  2676 PWs)   bands (ev):

    -2.2061  -0.9416   3.0339   3.4325

          k =-0.2500-0.7500-0.0833 (  2675 PWs)   bands (ev):

    -3.1453   0.1873   2.7810   3.5802

          k =-0.0833-0.5833 0.0833 (  2671 PWs)   bands (ev):

    -4.2360   1.7828   3.8540   4.0730

          k =-0.2500 0.2500 0.2500 (  2665 PWs)   bands (ev):

    -4.9551   2.2822   5.4512   5.4512

          k =-0.4167 0.4167 0.0833 (  2669 PWs)   bands (ev):

    -4.2731   1.3498   3.3061   5.2818

          k = 0.4167-0.4167 0.9167 (  2670 PWs)   bands (ev):

    -3.0879  -0.0949   2.1914   4.4897

          k = 0.2500-0.2500 0.7500 (  2666 PWs)   bands (ev):

    -3.0358  -0.1743   2.6744   4.0044

          k =-0.2500 0.5833 0.2500 (  2679 PWs)   bands (ev):

    -3.8470   0.5372   3.7777   4.3796

          k = 0.5833-0.2500 1.0833 (  2674 PWs)   bands (ev):

    -2.8400  -0.2053   2.2915   3.5770

          k = 0.4167-0.0833 0.9167 (  2667 PWs)   bands (ev):

    -2.0047  -0.9409   2.1238   2.9045

          k =-0.2500-1.0833 0.2500 (  2660 PWs)   bands (ev):

    -2.2161  -0.8484   1.9969   3.8088

          k =-0.4167 0.4167 0.4167 (  2671 PWs)   bands (ev):

    -3.7568  -0.2568   5.0617   5.0617

          k = 0.4167-0.4167 1.2500 (  2666 PWs)   bands (ev):

    -3.1484  -0.5580   3.2185   4.6177

     highest occupied level (ev):     6.0683

!    total energy              =     -22.83981682 Ry
     estimated scf accuracy    <       0.00000040 Ry

     The total energy is the sum of the following terms:
     one-electron contribution =       5.17103952 Ry
     hartree contribution      =       1.09984237 Ry
     xc contribution           =     -12.30976914 Ry
     ewald contribution        =     -16.80092957 Ry

     convergence has been achieved in   5 iterations

     Writing all to output data dir /home/guest/Rishi-Tushar/silicon-scf/output/silicon.save/ :
     XML data file, charge density, pseudopotentials, collected wavefunctions

     init_run     :      0.58s CPU      0.56s WALL (       1 calls)
     electrons    :      3.09s CPU      2.88s WALL (       1 calls)

     Called by init_run:
     wfcinit      :      0.27s CPU      0.24s WALL (       1 calls)
     potinit      :      0.02s CPU      0.03s WALL (       1 calls)
     hinit0       :      0.23s CPU      0.24s WALL (       1 calls)

     Called by electrons:
     c_bands      :      2.24s CPU      2.10s WALL (       6 calls)
     sum_band     :      0.62s CPU      0.55s WALL (       6 calls)
     v_of_rho     :      0.08s CPU      0.08s WALL (       6 calls)
     newd         :      0.18s CPU      0.17s WALL (       6 calls)
     mix_rho      :      0.01s CPU      0.00s WALL (       6 calls)

     Called by c_bands:
     init_us_2    :      0.14s CPU      0.14s WALL (     364 calls)
     cegterg      :      2.01s CPU      1.88s WALL (     168 calls)

     Called by *egterg:
     cdiaghg      :      0.03s CPU      0.03s WALL (     537 calls)
     h_psi        :      1.99s CPU      1.87s WALL (     593 calls)
     s_psi        :      0.08s CPU      0.06s WALL (     593 calls)
     g_psi        :      0.01s CPU      0.01s WALL (     397 calls)

     Called by h_psi:
     h_psi:calbec :      0.10s CPU      0.09s WALL (     593 calls)
     vloc_psi     :      1.80s CPU      1.71s WALL (     593 calls)
                                        0.00s GPU  (     593 calls)
     add_vuspsi   :      0.08s CPU      0.06s WALL (     593 calls)

     General routines
     calbec       :      0.13s CPU      0.11s WALL (     761 calls)
     fft          :      0.10s CPU      0.11s WALL (      67 calls)
     ffts         :      0.00s CPU      0.00s WALL (       6 calls)
     fftw         :      1.92s CPU      1.84s WALL (    4956 calls)

     Parallel routines

     PWSCF        :      3.80s CPU      3.58s WALL


   This run was terminated on:  15:10:23  12Jun2026            

=------------------------------------------------------------------------------=
   JOB DONE.
=------------------------------------------------------------------------------=
