
     Program PWSCF v.7.5 starts on 12Jun2026 at 15:12:21 

     This program is part of the open-source Quantum ESPRESSO suite
     for quantum simulation of materials; please cite
         "P. Giannozzi et al., J. Phys.:Condens. Matter 21 395502 (2009);
         "P. Giannozzi et al., J. Phys.:Condens. Matter 29 465901 (2017);
         "P. Giannozzi et al., J. Chem. Phys. 152 154105 (2020);
          URL http://www.quantum-espresso.org", 
     in publications or presentations arising from this work. More details at
     http://www.quantum-espresso.org/quote

     Parallel version (MPI), running on     4 processors

     MPI processes distributed on     1 nodes
     13362 MiB available memory on the printing compute node when the environment starts

     Waiting for input...
     Reading input from standard input

     Current dimensions of program PWSCF are:
     Max number of different atomic species (ntypx) = 10
     Max number of k-points (npk) =  40000
     Max angular momentum in pseudopotentials (lmaxx) =  4

     R & G space division:  proc/nbgrp/npool/nimage =       4
     Subspace diagonalization in iterative solution of the eigenvalue problem:
     a serial algorithm will be used


     Parallelization info
     --------------------
     sticks:   dense  smooth     PW     G-vecs:    dense   smooth      PW
     Min         472     472    136                13523    13523    2097
     Max         473     473    137                13525    13525    2099
     Sum        1891    1891    547                54097    54097    8393

     Using Slab Decomposition



     bravais-lattice index     =            2
     lattice parameter (alat)  =      10.2600  a.u.
     unit-cell volume          =     270.0114 (a.u.)^3
     number of atoms/cell      =            2
     number of atomic types    =            1
     number of electrons       =         8.00
     number of Kohn-Sham states=            4
     kinetic-energy cutoff     =     130.0000  Ry
     charge density cutoff     =     520.0000  Ry
     scf convergence threshold =      1.0E-06
     mixing beta               =       0.6000
     number of iterations used =            8  plain     mixing
     Exchange-correlation= PBE
                           (   1   4   3   4   0   0   0)

     celldm(1)=  10.260000  celldm(2)=   0.000000  celldm(3)=   0.000000
     celldm(4)=   0.000000  celldm(5)=   0.000000  celldm(6)=   0.000000

     crystal axes: (cart. coord. in units of alat)
               a(1) = (  -0.500000   0.000000   0.500000 )  
               a(2) = (   0.000000   0.500000   0.500000 )  
               a(3) = (  -0.500000   0.500000   0.000000 )  

     reciprocal axes: (cart. coord. in units 2 pi/alat)
               b(1) = ( -1.000000 -1.000000  1.000000 )  
               b(2) = (  1.000000  1.000000  1.000000 )  
               b(3) = ( -1.000000  1.000000 -1.000000 )  


     PseudoPot. # 1 for Si read from file:
     /home/guest/Rishi-Tushar/silicon-scf/pseudopotential/Si.pbe-n-rrkjus_psl.1.0.0.UPF
     MD5 check sum: 0b0bb1205258b0d07b9f9672cf965d36
     Pseudo is Ultrasoft + core correction, Zval =  4.0
     Generated using "atomic" code by A. Dal Corso  v.5.1
     Using radial grid of 1141 points,  6 beta functions with: 
                l(1) =   0
                l(2) =   0
                l(3) =   1
                l(4) =   1
                l(5) =   2
                l(6) =   2
     Q(r) pseudized with 0 coefficients 


     atomic species   valence    mass     pseudopotential
     Si                4.00    28.08600     Si( 1.00)

     48 Sym. Ops., with inversion, found (24 have fractional translation)



   Cartesian axes

     site n.     atom                  positions (alat units)
         1        Si     tau(   1) = (   0.0000000   0.0000000   0.0000000  )
         2        Si     tau(   2) = (   0.2500000   0.2500000   0.2500000  )

     number of k points=    28
                       cart. coord. in units 2pi/alat
        k(    1) = (  -0.0833333   0.0833333   0.0833333), wk =   0.0185185
        k(    2) = (  -0.2500000   0.2500000  -0.0833333), wk =   0.0555556
        k(    3) = (  -0.4166667   0.4166667  -0.2500000), wk =   0.0555556
        k(    4) = (   0.4166667  -0.4166667   0.5833333), wk =   0.0555556
        k(    5) = (   0.2500000  -0.2500000   0.4166667), wk =   0.0555556
        k(    6) = (   0.0833333  -0.0833333   0.2500000), wk =   0.0555556
        k(    7) = (  -0.0833333   0.4166667   0.0833333), wk =   0.0555556
        k(    8) = (  -0.2500000   0.5833333  -0.0833333), wk =   0.1111111
        k(    9) = (   0.5833333  -0.2500000   0.7500000), wk =   0.1111111
        k(   10) = (   0.4166667  -0.0833333   0.5833333), wk =   0.1111111
        k(   11) = (   0.2500000   0.0833333   0.4166667), wk =   0.1111111
        k(   12) = (  -0.0833333   0.7500000   0.0833333), wk =   0.0555556
        k(   13) = (   0.7500000  -0.0833333   0.9166667), wk =   0.1111111
        k(   14) = (   0.5833333   0.0833333   0.7500000), wk =   0.1111111
        k(   15) = (   0.4166667   0.2500000   0.5833333), wk =   0.1111111
        k(   16) = (  -0.0833333  -0.9166667   0.0833333), wk =   0.0555556
        k(   17) = (  -0.2500000  -0.7500000  -0.0833333), wk =   0.1111111
        k(   18) = (  -0.0833333  -0.5833333   0.0833333), wk =   0.0555556
        k(   19) = (  -0.2500000   0.2500000   0.2500000), wk =   0.0185185
        k(   20) = (  -0.4166667   0.4166667   0.0833333), wk =   0.0555556
        k(   21) = (   0.4166667  -0.4166667   0.9166667), wk =   0.0555556
        k(   22) = (   0.2500000  -0.2500000   0.7500000), wk =   0.0555556
        k(   23) = (  -0.2500000   0.5833333   0.2500000), wk =   0.0555556
        k(   24) = (   0.5833333  -0.2500000   1.0833333), wk =   0.1111111
        k(   25) = (   0.4166667  -0.0833333   0.9166667), wk =   0.1111111
        k(   26) = (  -0.2500000  -1.0833333   0.2500000), wk =   0.0555556
        k(   27) = (  -0.4166667   0.4166667   0.4166667), wk =   0.0185185
        k(   28) = (   0.4166667  -0.4166667   1.2500000), wk =   0.0555556

     Dense  grid:    54097 G-vectors     FFT dimensions: (  60,  60,  60)

     Estimated max dynamical RAM per process >      53.87 MB

     Estimated total dynamical RAM >     215.48 MB

     Initial potential from superposition of free atoms

     starting charge       7.9989, renormalised to       8.0000
     Starting wfcs are    8 randomized atomic wfcs

     total cpu time spent up to now is        1.4 secs

     Self-consistent Calculation

     iteration #  1     ecut=   130.00 Ry     beta= 0.60
     Davidson diagonalization with overlap
     ethr =  1.00E-02,  avg # of iterations =  2.0

     Threshold (ethr) on eigenvalues was too large:
     Diagonalizing with lowered threshold

     Davidson diagonalization with overlap
     ethr =  6.17E-04,  avg # of iterations =  1.5

     total cpu time spent up to now is        4.0 secs

     total energy              =     -22.83814434 Ry
     estimated scf accuracy    <       0.05348086 Ry

     iteration #  2     ecut=   130.00 Ry     beta= 0.60
     Davidson diagonalization with overlap
     ethr =  6.69E-04,  avg # of iterations =  1.0

     total cpu time spent up to now is        5.3 secs

     total energy              =     -22.83873655 Ry
     estimated scf accuracy    <       0.00621325 Ry

     iteration #  3     ecut=   130.00 Ry     beta= 0.60
     Davidson diagonalization with overlap
     ethr =  7.77E-05,  avg # of iterations =  2.1

     total cpu time spent up to now is        7.1 secs

     total energy              =     -22.83970872 Ry
     estimated scf accuracy    <       0.00014558 Ry

     iteration #  4     ecut=   130.00 Ry     beta= 0.60
     Davidson diagonalization with overlap
     ethr =  1.82E-06,  avg # of iterations =  4.8

     total cpu time spent up to now is        9.1 secs

     total energy              =     -22.83983315 Ry
     estimated scf accuracy    <       0.00002492 Ry

     iteration #  5     ecut=   130.00 Ry     beta= 0.60
     Davidson diagonalization with overlap
     ethr =  3.12E-07,  avg # of iterations =  2.8

     total cpu time spent up to now is       10.7 secs

     End of self-consistent calculation

          k =-0.0833 0.0833 0.0833 (  6762 PWs)   bands (ev):

    -5.6640   5.3530   6.0684   6.0684

          k =-0.2500 0.2500-0.0833 (  6746 PWs)   bands (ev):

    -5.1855   3.2676   4.8246   5.8583

          k =-0.4167 0.4167-0.2500 (  6744 PWs)   bands (ev):

    -4.0881   0.4919   4.3606   5.2178

          k = 0.4167-0.4167 0.5833 (  6763 PWs)   bands (ev):

    -3.3848  -0.6593   4.4291   4.8345

          k = 0.2500-0.2500 0.4167 (  6755 PWs)   bands (ev):

    -4.5021   1.3428   4.8934   4.9311

          k = 0.0833-0.0833 0.2500 (  6738 PWs)   bands (ev):

    -5.4224   4.2836   5.4170   5.6084

          k =-0.0833 0.4167 0.0833 (  6757 PWs)   bands (ev):

    -4.9434   3.0853   4.6702   4.6827

          k =-0.2500 0.5833-0.0833 (  6751 PWs)   bands (ev):

    -4.0292   1.2388   3.3423   4.2944

          k = 0.5833-0.2500 0.7500 (  6773 PWs)   bands (ev):

    -2.9058  -0.5245   2.7398   4.0651

          k = 0.4167-0.0833 0.5833 (  6748 PWs)   bands (ev):

    -3.6325   0.5413   2.6950   4.5556

          k = 0.2500 0.0833 0.4167 (  6753 PWs)   bands (ev):

    -4.7170   2.2414   4.0435   5.2297

          k =-0.0833 0.7500 0.0833 (  6768 PWs)   bands (ev):

    -3.3149   0.4126   3.3053   3.6489

          k = 0.7500-0.0833 0.9167 (  6767 PWs)   bands (ev):

    -2.1129  -0.9329   2.4560   3.2381

          k = 0.5833 0.0833 0.7500 (  6759 PWs)   bands (ev):

    -2.4840  -0.5994   1.9704   3.7872

          k = 0.4167 0.2500 0.5833 (  6753 PWs)   bands (ev):

    -3.5192  -0.1527   3.6471   4.6546

          k =-0.0833-0.9167 0.0833 (  6774 PWs)   bands (ev):

    -2.2060  -0.9414   3.0340   3.4326

          k =-0.2500-0.7500-0.0833 (  6760 PWs)   bands (ev):

    -3.1451   0.1874   2.7811   3.5804

          k =-0.0833-0.5833 0.0833 (  6772 PWs)   bands (ev):

    -4.2358   1.7830   3.8541   4.0731

          k =-0.2500 0.2500 0.2500 (  6738 PWs)   bands (ev):

    -4.9550   2.2823   5.4514   5.4514

          k =-0.4167 0.4167 0.0833 (  6748 PWs)   bands (ev):

    -4.2729   1.3500   3.3062   5.2819

          k = 0.4167-0.4167 0.9167 (  6752 PWs)   bands (ev):

    -3.0877  -0.0947   2.1915   4.4899

          k = 0.2500-0.2500 0.7500 (  6757 PWs)   bands (ev):

    -3.0356  -0.1742   2.6745   4.0045

          k =-0.2500 0.5833 0.2500 (  6756 PWs)   bands (ev):

    -3.8469   0.5373   3.7778   4.3798

          k = 0.5833-0.2500 1.0833 (  6766 PWs)   bands (ev):

    -2.8399  -0.2052   2.2916   3.5771

          k = 0.4167-0.0833 0.9167 (  6751 PWs)   bands (ev):

    -2.0046  -0.9407   2.1239   2.9046

          k =-0.2500-1.0833 0.2500 (  6774 PWs)   bands (ev):

    -2.2159  -0.8482   1.9970   3.8090

          k =-0.4167 0.4167 0.4167 (  6754 PWs)   bands (ev):

    -3.7567  -0.2567   5.0618   5.0618

          k = 0.4167-0.4167 1.2500 (  6756 PWs)   bands (ev):

    -3.1483  -0.5579   3.2186   4.6178

     highest occupied level (ev):     6.0684

!    total energy              =     -22.83984018 Ry
     estimated scf accuracy    <       0.00000050 Ry

     The total energy is the sum of the following terms:
     one-electron contribution =       5.17100742 Ry
     hartree contribution      =       1.09980454 Ry
     xc contribution           =     -12.30972257 Ry
     ewald contribution        =     -16.80092957 Ry

     convergence has been achieved in   5 iterations

     Writing all to output data dir /home/guest/Rishi-Tushar/silicon-scf/output/silicon.save/ :
     XML data file, charge density, pseudopotentials, collected wavefunctions

     init_run     :      1.41s CPU      1.32s WALL (       1 calls)
     electrons    :     10.41s CPU      9.27s WALL (       1 calls)

     Called by init_run:
     wfcinit      :      0.82s CPU      0.72s WALL (       1 calls)
     potinit      :      0.06s CPU      0.07s WALL (       1 calls)
     hinit0       :      0.32s CPU      0.33s WALL (       1 calls)

     Called by electrons:
     c_bands      :      7.83s CPU      6.79s WALL (       6 calls)
     sum_band     :      1.95s CPU      1.75s WALL (       6 calls)
     v_of_rho     :      0.30s CPU      0.28s WALL (       6 calls)
     newd         :      0.43s CPU      0.55s WALL (       6 calls)
     mix_rho      :      0.02s CPU      0.02s WALL (       6 calls)

     Called by c_bands:
     init_us_2    :      0.42s CPU      0.35s WALL (     364 calls)
     cegterg      :      7.15s CPU      6.23s WALL (     168 calls)

     Called by *egterg:
     cdiaghg      :      0.05s CPU      0.04s WALL (     538 calls)
     h_psi        :      7.12s CPU      6.26s WALL (     594 calls)
     s_psi        :      0.19s CPU      0.13s WALL (     594 calls)
     g_psi        :      0.04s CPU      0.03s WALL (     398 calls)

     Called by h_psi:
     h_psi:calbec :      0.52s CPU      0.45s WALL (     594 calls)
     vloc_psi     :      6.39s CPU      5.65s WALL (     594 calls)
                                        0.00s GPU  (     594 calls)
     add_vuspsi   :      0.19s CPU      0.14s WALL (     594 calls)

     General routines
     calbec       :      0.68s CPU      0.58s WALL (     762 calls)
     fft          :      0.21s CPU      0.21s WALL (      67 calls)
     ffts         :      0.01s CPU      0.01s WALL (       6 calls)
     fftw         :      6.78s CPU      6.01s WALL (    4954 calls)

     Parallel routines

     PWSCF        :     11.97s CPU     10.76s WALL


   This run was terminated on:  15:12:32  12Jun2026            

=------------------------------------------------------------------------------=
   JOB DONE.
=------------------------------------------------------------------------------=
