
     Program PWSCF v.7.5 starts on 12Jun2026 at 15:57: 9 

     This program is part of the open-source Quantum ESPRESSO suite
     for quantum simulation of materials; please cite
         "P. Giannozzi et al., J. Phys.:Condens. Matter 21 395502 (2009);
         "P. Giannozzi et al., J. Phys.:Condens. Matter 29 465901 (2017);
         "P. Giannozzi et al., J. Chem. Phys. 152 154105 (2020);
          URL http://www.quantum-espresso.org", 
     in publications or presentations arising from this work. More details at
     http://www.quantum-espresso.org/quote

     Parallel version (MPI), running on     4 processors

     MPI processes distributed on     1 nodes
     12138 MiB available memory on the printing compute node when the environment starts

     Waiting for input...
     Reading input from standard input

     Current dimensions of program PWSCF are:
     Max number of different atomic species (ntypx) = 10
     Max number of k-points (npk) =  40000
     Max angular momentum in pseudopotentials (lmaxx) =  4

     R & G space division:  proc/nbgrp/npool/nimage =       4
     Subspace diagonalization in iterative solution of the eigenvalue problem:
     a serial algorithm will be used


     Parallelization info
     --------------------
     sticks:   dense  smooth     PW     G-vecs:    dense   smooth      PW
     Min         183     183     58                 3234     3234     569
     Max         184     184     59                 3236     3236     570
     Sum         733     733    235                12939    12939    2277

     Using Slab Decomposition



     bravais-lattice index     =            2
     lattice parameter (alat)  =      10.2600  a.u.
     unit-cell volume          =     270.0114 (a.u.)^3
     number of atoms/cell      =            2
     number of atomic types    =            1
     number of electrons       =         8.00
     number of Kohn-Sham states=            4
     kinetic-energy cutoff     =      50.0000  Ry
     charge density cutoff     =     200.0000  Ry
     scf convergence threshold =      1.0E-06
     mixing beta               =       0.6000
     number of iterations used =            8  plain     mixing
     Exchange-correlation= PBE
                           (   1   4   3   4   0   0   0)

     celldm(1)=  10.260000  celldm(2)=   0.000000  celldm(3)=   0.000000
     celldm(4)=   0.000000  celldm(5)=   0.000000  celldm(6)=   0.000000

     crystal axes: (cart. coord. in units of alat)
               a(1) = (  -0.500000   0.000000   0.500000 )  
               a(2) = (   0.000000   0.500000   0.500000 )  
               a(3) = (  -0.500000   0.500000   0.000000 )  

     reciprocal axes: (cart. coord. in units 2 pi/alat)
               b(1) = ( -1.000000 -1.000000  1.000000 )  
               b(2) = (  1.000000  1.000000  1.000000 )  
               b(3) = ( -1.000000  1.000000 -1.000000 )  


     PseudoPot. # 1 for Si read from file:
     /home/guest/Rishi-Tushar/silicon-scf/pseudopotential/Si.pbe-n-rrkjus_psl.1.0.0.UPF
     MD5 check sum: 0b0bb1205258b0d07b9f9672cf965d36
     Pseudo is Ultrasoft + core correction, Zval =  4.0
     Generated using "atomic" code by A. Dal Corso  v.5.1
     Using radial grid of 1141 points,  6 beta functions with: 
                l(1) =   0
                l(2) =   0
                l(3) =   1
                l(4) =   1
                l(5) =   2
                l(6) =   2
     Q(r) pseudized with 0 coefficients 


     atomic species   valence    mass     pseudopotential
     Si                4.00    28.08600     Si( 1.00)

     48 Sym. Ops., with inversion, found (24 have fractional translation)



   Cartesian axes

     site n.     atom                  positions (alat units)
         1        Si     tau(   1) = (   0.0000000   0.0000000   0.0000000  )
         2        Si     tau(   2) = (   0.2500000   0.2500000   0.2500000  )

     number of k points=    60
                       cart. coord. in units 2pi/alat
        k(    1) = (  -0.0625000   0.0625000   0.0625000), wk =   0.0078125
        k(    2) = (  -0.1875000   0.1875000  -0.0625000), wk =   0.0234375
        k(    3) = (  -0.3125000   0.3125000  -0.1875000), wk =   0.0234375
        k(    4) = (  -0.4375000   0.4375000  -0.3125000), wk =   0.0234375
        k(    5) = (   0.4375000  -0.4375000   0.5625000), wk =   0.0234375
        k(    6) = (   0.3125000  -0.3125000   0.4375000), wk =   0.0234375
        k(    7) = (   0.1875000  -0.1875000   0.3125000), wk =   0.0234375
        k(    8) = (   0.0625000  -0.0625000   0.1875000), wk =   0.0234375
        k(    9) = (  -0.0625000   0.3125000   0.0625000), wk =   0.0234375
        k(   10) = (  -0.1875000   0.4375000  -0.0625000), wk =   0.0468750
        k(   11) = (  -0.3125000   0.5625000  -0.1875000), wk =   0.0468750
        k(   12) = (   0.5625000  -0.3125000   0.6875000), wk =   0.0468750
        k(   13) = (   0.4375000  -0.1875000   0.5625000), wk =   0.0468750
        k(   14) = (   0.3125000  -0.0625000   0.4375000), wk =   0.0468750
        k(   15) = (   0.1875000   0.0625000   0.3125000), wk =   0.0468750
        k(   16) = (  -0.0625000   0.5625000   0.0625000), wk =   0.0234375
        k(   17) = (  -0.1875000   0.6875000  -0.0625000), wk =   0.0468750
        k(   18) = (   0.6875000  -0.1875000   0.8125000), wk =   0.0468750
        k(   19) = (   0.5625000  -0.0625000   0.6875000), wk =   0.0468750
        k(   20) = (   0.4375000   0.0625000   0.5625000), wk =   0.0468750
        k(   21) = (   0.3125000   0.1875000   0.4375000), wk =   0.0468750
        k(   22) = (  -0.0625000   0.8125000   0.0625000), wk =   0.0234375
        k(   23) = (   0.8125000  -0.0625000   0.9375000), wk =   0.0468750
        k(   24) = (   0.6875000   0.0625000   0.8125000), wk =   0.0468750
        k(   25) = (   0.5625000   0.1875000   0.6875000), wk =   0.0468750
        k(   26) = (   0.4375000   0.3125000   0.5625000), wk =   0.0468750
        k(   27) = (  -0.0625000  -0.9375000   0.0625000), wk =   0.0234375
        k(   28) = (  -0.1875000  -0.8125000  -0.0625000), wk =   0.0468750
        k(   29) = (  -0.3125000  -0.6875000  -0.1875000), wk =   0.0468750
        k(   30) = (  -0.0625000  -0.6875000   0.0625000), wk =   0.0234375
        k(   31) = (  -0.1875000  -0.5625000  -0.0625000), wk =   0.0468750
        k(   32) = (  -0.0625000  -0.4375000   0.0625000), wk =   0.0234375
        k(   33) = (  -0.1875000   0.1875000   0.1875000), wk =   0.0078125
        k(   34) = (  -0.3125000   0.3125000   0.0625000), wk =   0.0234375
        k(   35) = (  -0.4375000   0.4375000  -0.0625000), wk =   0.0234375
        k(   36) = (   0.4375000  -0.4375000   0.8125000), wk =   0.0234375
        k(   37) = (   0.3125000  -0.3125000   0.6875000), wk =   0.0234375
        k(   38) = (   0.1875000  -0.1875000   0.5625000), wk =   0.0234375
        k(   39) = (  -0.1875000   0.4375000   0.1875000), wk =   0.0234375
        k(   40) = (  -0.3125000   0.5625000   0.0625000), wk =   0.0468750
        k(   41) = (   0.5625000  -0.3125000   0.9375000), wk =   0.0468750
        k(   42) = (   0.4375000  -0.1875000   0.8125000), wk =   0.0468750
        k(   43) = (   0.3125000  -0.0625000   0.6875000), wk =   0.0468750
        k(   44) = (  -0.1875000   0.6875000   0.1875000), wk =   0.0234375
        k(   45) = (   0.6875000  -0.1875000   1.0625000), wk =   0.0468750
        k(   46) = (   0.5625000  -0.0625000   0.9375000), wk =   0.0468750
        k(   47) = (   0.4375000   0.0625000   0.8125000), wk =   0.0468750
        k(   48) = (  -0.1875000  -1.0625000   0.1875000), wk =   0.0234375
        k(   49) = (  -0.3125000  -0.9375000   0.0625000), wk =   0.0468750
        k(   50) = (  -0.1875000  -0.8125000   0.1875000), wk =   0.0234375
        k(   51) = (  -0.3125000   0.3125000   0.3125000), wk =   0.0078125
        k(   52) = (  -0.4375000   0.4375000   0.1875000), wk =   0.0234375
        k(   53) = (   0.4375000  -0.4375000   1.0625000), wk =   0.0234375
        k(   54) = (   0.3125000  -0.3125000   0.9375000), wk =   0.0234375
        k(   55) = (  -0.3125000   0.5625000   0.3125000), wk =   0.0234375
        k(   56) = (   0.5625000  -0.3125000   1.1875000), wk =   0.0468750
        k(   57) = (   0.4375000  -0.1875000   1.0625000), wk =   0.0468750
        k(   58) = (  -0.3125000  -1.1875000   0.3125000), wk =   0.0234375
        k(   59) = (  -0.4375000   0.4375000   0.4375000), wk =   0.0078125
        k(   60) = (   0.4375000  -0.4375000   1.3125000), wk =   0.0234375

     Dense  grid:    12939 G-vectors     FFT dimensions: (  36,  36,  36)

     Estimated max dynamical RAM per process >      14.29 MB

     Estimated total dynamical RAM >      57.15 MB

     Initial potential from superposition of free atoms

     starting charge       7.9989, renormalised to       8.0000
     Starting wfcs are    8 randomized atomic wfcs

     total cpu time spent up to now is        0.8 secs

     Self-consistent Calculation

     iteration #  1     ecut=    50.00 Ry     beta= 0.60
     Davidson diagonalization with overlap
     ethr =  1.00E-02,  avg # of iterations =  2.0

     Threshold (ethr) on eigenvalues was too large:
     Diagonalizing with lowered threshold

     Davidson diagonalization with overlap
     ethr =  6.21E-04,  avg # of iterations =  1.4

     total cpu time spent up to now is        2.0 secs

     total energy              =     -22.83810509 Ry
     estimated scf accuracy    <       0.05374638 Ry

     iteration #  2     ecut=    50.00 Ry     beta= 0.60
     Davidson diagonalization with overlap
     ethr =  6.72E-04,  avg # of iterations =  1.0

     total cpu time spent up to now is        2.6 secs

     total energy              =     -22.83871061 Ry
     estimated scf accuracy    <       0.00616743 Ry

     iteration #  3     ecut=    50.00 Ry     beta= 0.60
     Davidson diagonalization with overlap
     ethr =  7.71E-05,  avg # of iterations =  2.0

     total cpu time spent up to now is        3.2 secs

     total energy              =     -22.83966552 Ry
     estimated scf accuracy    <       0.00014500 Ry

     iteration #  4     ecut=    50.00 Ry     beta= 0.60
     Davidson diagonalization with overlap
     ethr =  1.81E-06,  avg # of iterations =  4.4

     total cpu time spent up to now is        4.1 secs

     total energy              =     -22.83977757 Ry
     estimated scf accuracy    <       0.00002387 Ry

     iteration #  5     ecut=    50.00 Ry     beta= 0.60
     Davidson diagonalization with overlap
     ethr =  2.98E-07,  avg # of iterations =  3.3

     total cpu time spent up to now is        4.9 secs

     End of self-consistent calculation

          k =-0.0625 0.0625 0.0625 (  1627 PWs)   bands (ev):

    -5.7035   5.6819   6.1281   6.1281

          k =-0.1875 0.1875-0.0625 (  1594 PWs)   bands (ev):

    -5.4321   4.1718   5.3071   6.0109

          k =-0.3125 0.3125-0.1875 (  1611 PWs)   bands (ev):

    -4.7768   1.9220   4.8169   5.5430

          k =-0.4375 0.4375-0.3125 (  1612 PWs)   bands (ev):

    -3.8598   0.0103   4.6012   5.1309

          k = 0.4375-0.4375 0.5625 (  1610 PWs)   bands (ev):

    -3.4010  -0.7033   4.6539   4.9089

          k = 0.3125-0.3125 0.4375 (  1617 PWs)   bands (ev):

    -4.1745   0.5765   4.9276   4.9446

          k = 0.1875-0.1875 0.3125 (  1609 PWs)   bands (ev):

    -5.0339   2.6601   5.2050   5.4138

          k = 0.0625-0.0625 0.1875 (  1600 PWs)   bands (ev):

    -5.5671   4.9319   5.6926   5.8608

          k =-0.0625 0.3125 0.0625 (  1602 PWs)   bands (ev):

    -5.2957   4.0407   5.1257   5.2183

          k =-0.1875 0.4375-0.0625 (  1614 PWs)   bands (ev):

    -4.7646   2.5265   4.1428   4.9549

          k =-0.3125 0.5625-0.1875 (  1608 PWs)   bands (ev):

    -3.9073   0.6397   3.6501   4.5354

          k = 0.5625-0.3125 0.6875 (  1604 PWs)   bands (ev):

    -3.1296  -0.5924   3.3602   4.4398

          k = 0.4375-0.1875 0.5625 (  1609 PWs)   bands (ev):

    -3.5979   0.1115   3.2819   4.7307

          k = 0.3125-0.0625 0.4375 (  1604 PWs)   bands (ev):

    -4.5131   1.8672   3.5784   5.2481

          k = 0.1875 0.0625 0.3125 (  1603 PWs)   bands (ev):

    -5.1636   3.3527   4.7214   5.6283

          k =-0.0625 0.5625 0.0625 (  1613 PWs)   bands (ev):

    -4.3593   2.0320   3.9990   4.1226

          k =-0.1875 0.6875-0.0625 (  1620 PWs)   bands (ev):

    -3.5974   0.7816   3.1981   3.7693

          k = 0.6875-0.1875 0.8125 (  1616 PWs)   bands (ev):

    -2.6835  -0.4365   2.3446   3.7378

          k = 0.5625-0.0625 0.6875 (  1609 PWs)   bands (ev):

    -2.7546  -0.3423   1.9834   4.0885

          k = 0.4375 0.0625 0.5625 (  1607 PWs)   bands (ev):

    -3.6661   0.6164   2.6013   4.6848

          k = 0.3125 0.1875 0.4375 (  1605 PWs)   bands (ev):

    -4.3979   1.2440   4.2680   5.1483

          k =-0.0625 0.8125 0.0625 (  1620 PWs)   bands (ev):

    -2.9362  -0.0893   3.2992   3.5224

          k = 0.8125-0.0625 0.9375 (  1618 PWs)   bands (ev):

    -2.0128  -1.0901   2.7281   3.2725

          k = 0.6875 0.0625 0.8125 (  1620 PWs)   bands (ev):

    -2.1052  -0.9264   1.9827   3.5924

          k = 0.5625 0.1875 0.6875 (  1606 PWs)   bands (ev):

    -2.8708  -0.5359   2.5607   4.2038

          k = 0.4375 0.3125 0.5625 (  1611 PWs)   bands (ev):

    -3.4893  -0.3977   4.0963   4.8056

          k =-0.0625-0.9375 0.0625 (  1620 PWs)   bands (ev):

    -2.0664  -1.1091   3.1595   3.3998

          k =-0.1875-0.8125-0.0625 (  1620 PWs)   bands (ev):

    -2.8485  -0.1532   2.8891   3.4339

          k =-0.3125-0.6875-0.1875 (  1615 PWs)   bands (ev):

    -3.3232   0.0919   2.9626   4.0430

          k =-0.0625-0.6875 0.0625 (  1617 PWs)   bands (ev):

    -3.7046   0.9685   3.5789   3.7651

          k =-0.1875-0.5625-0.0625 (  1614 PWs)   bands (ev):

    -4.2400   1.6769   3.6263   4.2893

          k =-0.0625-0.4375 0.0625 (  1612 PWs)   bands (ev):

    -4.8917   3.0666   4.5553   4.5838

          k =-0.1875 0.1875 0.1875 (  1600 PWs)   bands (ev):

    -5.2988   3.4366   5.6803   5.6803

          k =-0.3125 0.3125 0.0625 (  1600 PWs)   bands (ev):

    -4.9014   2.5989   4.1399   5.7031

          k =-0.4375 0.4375-0.0625 (  1611 PWs)   bands (ev):

    -4.1434   1.2204   3.0416   5.1891

          k = 0.4375-0.4375 0.8125 (  1604 PWs)   bands (ev):

    -3.2318  -0.2971   2.8964   4.6481

          k = 0.3125-0.3125 0.6875 (  1604 PWs)   bands (ev):

    -3.2164  -0.3254   3.2034   4.3237

          k = 0.1875-0.1875 0.5625 (  1614 PWs)   bands (ev):

    -4.1268   1.2164   3.8235   4.2975

          k =-0.1875 0.4375 0.1875 (  1608 PWs)   bands (ev):

    -4.6411   1.9225   4.6682   4.7221

          k =-0.3125 0.5625 0.0625 (  1608 PWs)   bands (ev):

    -4.0057   1.1595   3.0991   4.5250

          k = 0.5625-0.3125 0.9375 (  1614 PWs)   bands (ev):

    -3.0996   0.0491   2.2937   3.9432

          k = 0.4375-0.1875 0.8125 (  1612 PWs)   bands (ev):

    -2.6014  -0.5785   2.3022   3.6230

          k = 0.3125-0.0625 0.6875 (  1615 PWs)   bands (ev):

    -3.3904   0.4489   2.7277   3.8065

          k =-0.1875 0.6875 0.1875 (  1620 PWs)   bands (ev):

    -3.5017   0.5021   3.0713   3.9622

          k = 0.6875-0.1875 1.0625 (  1621 PWs)   bands (ev):

    -2.6854  -0.2957   2.4766   3.2580

          k = 0.5625-0.0625 0.9375 (  1614 PWs)   bands (ev):

    -1.8624  -1.0581   2.1476   2.7449

          k = 0.4375 0.0625 0.8125 (  1608 PWs)   bands (ev):

    -2.4748  -0.5077   2.1438   3.2304

          k =-0.1875-1.0625 0.1875 (  1618 PWs)   bands (ev):

    -2.0307  -1.0410   2.2552   3.6153

          k =-0.3125-0.9375 0.0625 (  1619 PWs)   bands (ev):

    -1.9290  -1.0682   2.3509   2.9674

          k =-0.1875-0.8125 0.1875 (  1621 PWs)   bands (ev):

    -2.7848  -0.2605   2.5298   3.7321

          k =-0.3125 0.3125 0.3125 (  1615 PWs)   bands (ev):

    -4.5315   1.2073   5.2629   5.2629

          k =-0.4375 0.4375 0.1875 (  1612 PWs)   bands (ev):

    -4.0443   0.6281   3.7774   5.1751

          k = 0.4375-0.4375 1.0625 (  1607 PWs)   bands (ev):

    -3.2390   0.1091   2.2127   4.5824

          k = 0.3125-0.3125 0.9375 (  1610 PWs)   bands (ev):

    -2.4023  -0.6765   1.8627   4.0260

          k =-0.3125 0.5625 0.3125 (  1613 PWs)   bands (ev):

    -3.7240   0.0606   4.1256   4.5996

          k = 0.5625-0.3125 1.1875 (  1611 PWs)   bands (ev):

    -3.0934  -0.2922   2.7884   4.1114

          k = 0.4375-0.1875 1.0625 (  1612 PWs)   bands (ev):

    -2.2627  -0.7383   1.9560   3.3831

          k =-0.3125-1.1875 0.3125 (  1607 PWs)   bands (ev):

    -2.7277  -0.5706   2.3822   4.1274

          k =-0.4375 0.4375 0.4375 (  1616 PWs)   bands (ev):

    -3.6241  -0.4636   5.0404   5.0404

          k = 0.4375-0.4375 1.3125 (  1608 PWs)   bands (ev):

    -3.2661  -0.6385   3.8023   4.7660

     highest occupied level (ev):     6.1281

!    total energy              =     -22.83978595 Ry
     estimated scf accuracy    <       0.00000065 Ry

     The total energy is the sum of the following terms:
     one-electron contribution =       5.17112892 Ry
     hartree contribution      =       1.09970566 Ry
     xc contribution           =     -12.30969093 Ry
     ewald contribution        =     -16.80092961 Ry

     convergence has been achieved in   5 iterations

     Writing all to output data dir /home/guest/Rishi-Tushar/silicon-scf/output/silicon.save/ :
     XML data file, charge density, pseudopotentials, collected wavefunctions

     init_run     :      0.70s CPU      0.69s WALL (       1 calls)
     electrons    :      4.34s CPU      4.10s WALL (       1 calls)

     Called by init_run:
     wfcinit      :      0.44s CPU      0.42s WALL (       1 calls)
     potinit      :      0.02s CPU      0.02s WALL (       1 calls)
     hinit0       :      0.21s CPU      0.21s WALL (       1 calls)

     Called by electrons:
     c_bands      :      3.43s CPU      3.26s WALL (       6 calls)
     sum_band     :      0.73s CPU      0.67s WALL (       6 calls)
     v_of_rho     :      0.06s CPU      0.06s WALL (       6 calls)
     newd         :      0.13s CPU      0.13s WALL (       6 calls)
     mix_rho      :      0.00s CPU      0.00s WALL (       6 calls)

     Called by c_bands:
     init_us_2    :      0.18s CPU      0.17s WALL (     780 calls)
     cegterg      :      3.11s CPU      2.96s WALL (     360 calls)

     Called by *egterg:
     cdiaghg      :      0.06s CPU      0.06s WALL (    1149 calls)
     h_psi        :      3.09s CPU      2.97s WALL (    1269 calls)
     s_psi        :      0.11s CPU      0.08s WALL (    1269 calls)
     g_psi        :      0.02s CPU      0.02s WALL (     849 calls)

     Called by h_psi:
     h_psi:calbec :      0.22s CPU      0.20s WALL (    1269 calls)
     vloc_psi     :      2.74s CPU      2.67s WALL (    1269 calls)
                                        0.00s GPU  (    1269 calls)
     add_vuspsi   :      0.11s CPU      0.09s WALL (    1269 calls)

     General routines
     calbec       :      0.27s CPU      0.25s WALL (    1629 calls)
     fft          :      0.10s CPU      0.10s WALL (      67 calls)
     ffts         :      0.00s CPU      0.00s WALL (       6 calls)
     fftw         :      2.95s CPU      2.87s WALL (   10674 calls)

     Parallel routines

     PWSCF        :      5.17s CPU      4.94s WALL


   This run was terminated on:  15:57:14  12Jun2026            

=------------------------------------------------------------------------------=
   JOB DONE.
=------------------------------------------------------------------------------=
