
     Program PWSCF v.7.5 starts on 12Jun2026 at 15:13:10 

     This program is part of the open-source Quantum ESPRESSO suite
     for quantum simulation of materials; please cite
         "P. Giannozzi et al., J. Phys.:Condens. Matter 21 395502 (2009);
         "P. Giannozzi et al., J. Phys.:Condens. Matter 29 465901 (2017);
         "P. Giannozzi et al., J. Chem. Phys. 152 154105 (2020);
          URL http://www.quantum-espresso.org", 
     in publications or presentations arising from this work. More details at
     http://www.quantum-espresso.org/quote

     Parallel version (MPI), running on     4 processors

     MPI processes distributed on     1 nodes
     13349 MiB available memory on the printing compute node when the environment starts

     Waiting for input...
     Reading input from standard input

     Current dimensions of program PWSCF are:
     Max number of different atomic species (ntypx) = 10
     Max number of k-points (npk) =  40000
     Max angular momentum in pseudopotentials (lmaxx) =  4

     R & G space division:  proc/nbgrp/npool/nimage =       4
     Subspace diagonalization in iterative solution of the eigenvalue problem:
     a serial algorithm will be used


     Parallelization info
     --------------------
     sticks:   dense  smooth     PW     G-vecs:    dense   smooth      PW
     Min         543     543    156                16730    16730    2544
     Max         544     544    157                16732    16732    2545
     Sum        2173    2173    625                66923    66923   10177

     Using Slab Decomposition



     bravais-lattice index     =            2
     lattice parameter (alat)  =      10.2600  a.u.
     unit-cell volume          =     270.0114 (a.u.)^3
     number of atoms/cell      =            2
     number of atomic types    =            1
     number of electrons       =         8.00
     number of Kohn-Sham states=            4
     kinetic-energy cutoff     =     150.0000  Ry
     charge density cutoff     =     600.0000  Ry
     scf convergence threshold =      1.0E-06
     mixing beta               =       0.6000
     number of iterations used =            8  plain     mixing
     Exchange-correlation= PBE
                           (   1   4   3   4   0   0   0)

     celldm(1)=  10.260000  celldm(2)=   0.000000  celldm(3)=   0.000000
     celldm(4)=   0.000000  celldm(5)=   0.000000  celldm(6)=   0.000000

     crystal axes: (cart. coord. in units of alat)
               a(1) = (  -0.500000   0.000000   0.500000 )  
               a(2) = (   0.000000   0.500000   0.500000 )  
               a(3) = (  -0.500000   0.500000   0.000000 )  

     reciprocal axes: (cart. coord. in units 2 pi/alat)
               b(1) = ( -1.000000 -1.000000  1.000000 )  
               b(2) = (  1.000000  1.000000  1.000000 )  
               b(3) = ( -1.000000  1.000000 -1.000000 )  


     PseudoPot. # 1 for Si read from file:
     /home/guest/Rishi-Tushar/silicon-scf/pseudopotential/Si.pbe-n-rrkjus_psl.1.0.0.UPF
     MD5 check sum: 0b0bb1205258b0d07b9f9672cf965d36
     Pseudo is Ultrasoft + core correction, Zval =  4.0
     Generated using "atomic" code by A. Dal Corso  v.5.1
     Using radial grid of 1141 points,  6 beta functions with: 
                l(1) =   0
                l(2) =   0
                l(3) =   1
                l(4) =   1
                l(5) =   2
                l(6) =   2
     Q(r) pseudized with 0 coefficients 


     atomic species   valence    mass     pseudopotential
     Si                4.00    28.08600     Si( 1.00)

     48 Sym. Ops., with inversion, found (24 have fractional translation)



   Cartesian axes

     site n.     atom                  positions (alat units)
         1        Si     tau(   1) = (   0.0000000   0.0000000   0.0000000  )
         2        Si     tau(   2) = (   0.2500000   0.2500000   0.2500000  )

     number of k points=    28
                       cart. coord. in units 2pi/alat
        k(    1) = (  -0.0833333   0.0833333   0.0833333), wk =   0.0185185
        k(    2) = (  -0.2500000   0.2500000  -0.0833333), wk =   0.0555556
        k(    3) = (  -0.4166667   0.4166667  -0.2500000), wk =   0.0555556
        k(    4) = (   0.4166667  -0.4166667   0.5833333), wk =   0.0555556
        k(    5) = (   0.2500000  -0.2500000   0.4166667), wk =   0.0555556
        k(    6) = (   0.0833333  -0.0833333   0.2500000), wk =   0.0555556
        k(    7) = (  -0.0833333   0.4166667   0.0833333), wk =   0.0555556
        k(    8) = (  -0.2500000   0.5833333  -0.0833333), wk =   0.1111111
        k(    9) = (   0.5833333  -0.2500000   0.7500000), wk =   0.1111111
        k(   10) = (   0.4166667  -0.0833333   0.5833333), wk =   0.1111111
        k(   11) = (   0.2500000   0.0833333   0.4166667), wk =   0.1111111
        k(   12) = (  -0.0833333   0.7500000   0.0833333), wk =   0.0555556
        k(   13) = (   0.7500000  -0.0833333   0.9166667), wk =   0.1111111
        k(   14) = (   0.5833333   0.0833333   0.7500000), wk =   0.1111111
        k(   15) = (   0.4166667   0.2500000   0.5833333), wk =   0.1111111
        k(   16) = (  -0.0833333  -0.9166667   0.0833333), wk =   0.0555556
        k(   17) = (  -0.2500000  -0.7500000  -0.0833333), wk =   0.1111111
        k(   18) = (  -0.0833333  -0.5833333   0.0833333), wk =   0.0555556
        k(   19) = (  -0.2500000   0.2500000   0.2500000), wk =   0.0185185
        k(   20) = (  -0.4166667   0.4166667   0.0833333), wk =   0.0555556
        k(   21) = (   0.4166667  -0.4166667   0.9166667), wk =   0.0555556
        k(   22) = (   0.2500000  -0.2500000   0.7500000), wk =   0.0555556
        k(   23) = (  -0.2500000   0.5833333   0.2500000), wk =   0.0555556
        k(   24) = (   0.5833333  -0.2500000   1.0833333), wk =   0.1111111
        k(   25) = (   0.4166667  -0.0833333   0.9166667), wk =   0.1111111
        k(   26) = (  -0.2500000  -1.0833333   0.2500000), wk =   0.0555556
        k(   27) = (  -0.4166667   0.4166667   0.4166667), wk =   0.0185185
        k(   28) = (   0.4166667  -0.4166667   1.2500000), wk =   0.0555556

     Dense  grid:    66923 G-vectors     FFT dimensions: (  60,  60,  60)

     Estimated max dynamical RAM per process >      65.48 MB

     Estimated total dynamical RAM >     261.91 MB

     Initial potential from superposition of free atoms

     starting charge       7.9989, renormalised to       8.0000
     Starting wfcs are    8 randomized atomic wfcs

     total cpu time spent up to now is        1.7 secs

     Self-consistent Calculation

     iteration #  1     ecut=   150.00 Ry     beta= 0.60
     Davidson diagonalization with overlap
     ethr =  1.00E-02,  avg # of iterations =  2.0

     Threshold (ethr) on eigenvalues was too large:
     Diagonalizing with lowered threshold

     Davidson diagonalization with overlap
     ethr =  6.17E-04,  avg # of iterations =  1.4

     total cpu time spent up to now is        5.0 secs

     total energy              =     -22.83812340 Ry
     estimated scf accuracy    <       0.05347869 Ry

     iteration #  2     ecut=   150.00 Ry     beta= 0.60
     Davidson diagonalization with overlap
     ethr =  6.68E-04,  avg # of iterations =  1.0

     total cpu time spent up to now is       10.4 secs

     total energy              =     -22.83875031 Ry
     estimated scf accuracy    <       0.00618749 Ry

     iteration #  3     ecut=   150.00 Ry     beta= 0.60
     Davidson diagonalization with overlap
     ethr =  7.73E-05,  avg # of iterations =  2.1

     total cpu time spent up to now is       12.3 secs

     total energy              =     -22.83971601 Ry
     estimated scf accuracy    <       0.00014477 Ry

     iteration #  4     ecut=   150.00 Ry     beta= 0.60
     Davidson diagonalization with overlap
     ethr =  1.81E-06,  avg # of iterations =  4.6

     total cpu time spent up to now is       14.9 secs

     total energy              =     -22.83983478 Ry
     estimated scf accuracy    <       0.00002460 Ry

     iteration #  5     ecut=   150.00 Ry     beta= 0.60
     Davidson diagonalization with overlap
     ethr =  3.08E-07,  avg # of iterations =  3.0

     total cpu time spent up to now is       16.9 secs

     End of self-consistent calculation

          k =-0.0833 0.0833 0.0833 (  8390 PWs)   bands (ev):

    -5.6639   5.3531   6.0686   6.0686

          k =-0.2500 0.2500-0.0833 (  8373 PWs)   bands (ev):

    -5.1854   3.2677   4.8247   5.8584

          k =-0.4167 0.4167-0.2500 (  8382 PWs)   bands (ev):

    -4.0880   0.4921   4.3608   5.2179

          k = 0.4167-0.4167 0.5833 (  8377 PWs)   bands (ev):

    -3.3846  -0.6592   4.4292   4.8346

          k = 0.2500-0.2500 0.4167 (  8374 PWs)   bands (ev):

    -4.5020   1.3429   4.8935   4.9312

          k = 0.0833-0.0833 0.2500 (  8363 PWs)   bands (ev):

    -5.4223   4.2838   5.4172   5.6086

          k =-0.0833 0.4167 0.0833 (  8346 PWs)   bands (ev):

    -4.9433   3.0855   4.6704   4.6828

          k =-0.2500 0.5833-0.0833 (  8379 PWs)   bands (ev):

    -4.0291   1.2390   3.3424   4.2945

          k = 0.5833-0.2500 0.7500 (  8392 PWs)   bands (ev):

    -2.9057  -0.5243   2.7399   4.0652

          k = 0.4167-0.0833 0.5833 (  8385 PWs)   bands (ev):

    -3.6324   0.5414   2.6951   4.5557

          k = 0.2500 0.0833 0.4167 (  8349 PWs)   bands (ev):

    -4.7169   2.2416   4.0437   5.2298

          k =-0.0833 0.7500 0.0833 (  8372 PWs)   bands (ev):

    -3.3148   0.4127   3.3054   3.6490

          k = 0.7500-0.0833 0.9167 (  8384 PWs)   bands (ev):

    -2.1128  -0.9328   2.4561   3.2383

          k = 0.5833 0.0833 0.7500 (  8391 PWs)   bands (ev):

    -2.4839  -0.5992   1.9705   3.7874

          k = 0.4167 0.2500 0.5833 (  8382 PWs)   bands (ev):

    -3.5190  -0.1526   3.6472   4.6547

          k =-0.0833-0.9167 0.0833 (  8360 PWs)   bands (ev):

    -2.2059  -0.9413   3.0342   3.4327

          k =-0.2500-0.7500-0.0833 (  8379 PWs)   bands (ev):

    -3.1450   0.1876   2.7813   3.5805

          k =-0.0833-0.5833 0.0833 (  8363 PWs)   bands (ev):

    -4.2357   1.7831   3.8542   4.0732

          k =-0.2500 0.2500 0.2500 (  8351 PWs)   bands (ev):

    -4.9549   2.2825   5.4515   5.4515

          k =-0.4167 0.4167 0.0833 (  8363 PWs)   bands (ev):

    -4.2728   1.3501   3.3063   5.2820

          k = 0.4167-0.4167 0.9167 (  8382 PWs)   bands (ev):

    -3.0876  -0.0946   2.1916   4.4900

          k = 0.2500-0.2500 0.7500 (  8387 PWs)   bands (ev):

    -3.0355  -0.1740   2.6746   4.0047

          k =-0.2500 0.5833 0.2500 (  8388 PWs)   bands (ev):

    -3.8467   0.5375   3.7779   4.3799

          k = 0.5833-0.2500 1.0833 (  8387 PWs)   bands (ev):

    -2.8397  -0.2050   2.2917   3.5772

          k = 0.4167-0.0833 0.9167 (  8383 PWs)   bands (ev):

    -2.0044  -0.9406   2.1240   2.9047

          k =-0.2500-1.0833 0.2500 (  8391 PWs)   bands (ev):

    -2.2158  -0.8481   1.9971   3.8091

          k =-0.4167 0.4167 0.4167 (  8390 PWs)   bands (ev):

    -3.7565  -0.2566   5.0620   5.0620

          k = 0.4167-0.4167 1.2500 (  8388 PWs)   bands (ev):

    -3.1481  -0.5578   3.2187   4.6180

     highest occupied level (ev):     6.0686

!    total energy              =     -22.83984234 Ry
     estimated scf accuracy    <       0.00000050 Ry

     The total energy is the sum of the following terms:
     one-electron contribution =       5.17096253 Ry
     hartree contribution      =       1.09988303 Ry
     xc contribution           =     -12.30975833 Ry
     ewald contribution        =     -16.80092957 Ry

     convergence has been achieved in   5 iterations

     Writing all to output data dir /home/guest/Rishi-Tushar/silicon-scf/output/silicon.save/ :
     XML data file, charge density, pseudopotentials, collected wavefunctions

     init_run     :      1.61s CPU      1.55s WALL (       1 calls)
     electrons    :     17.08s CPU     15.23s WALL (       1 calls)

     Called by init_run:
     wfcinit      :      0.94s CPU      0.85s WALL (       1 calls)
     potinit      :      0.06s CPU      0.07s WALL (       1 calls)
     hinit0       :      0.34s CPU      0.34s WALL (       1 calls)

     Called by electrons:
     c_bands      :     13.05s CPU     11.53s WALL (       6 calls)
     sum_band     :      3.36s CPU      2.94s WALL (       6 calls)
     v_of_rho     :      0.28s CPU      0.28s WALL (       6 calls)
     newd         :      0.49s CPU      0.59s WALL (       6 calls)
     mix_rho      :      0.02s CPU      0.02s WALL (       6 calls)

     Called by c_bands:
     init_us_2    :      0.53s CPU      0.44s WALL (     364 calls)
     cegterg      :     11.94s CPU     10.58s WALL (     168 calls)

     Called by *egterg:
     cdiaghg      :      0.18s CPU      0.15s WALL (     534 calls)
     h_psi        :     10.40s CPU      9.22s WALL (     590 calls)
     s_psi        :      0.24s CPU      0.16s WALL (     590 calls)
     g_psi        :      0.05s CPU      0.04s WALL (     394 calls)

     Called by h_psi:
     h_psi:calbec :      1.72s CPU      1.64s WALL (     590 calls)
     vloc_psi     :      8.41s CPU      7.38s WALL (     590 calls)
                                        0.00s GPU  (     590 calls)
     add_vuspsi   :      0.25s CPU      0.19s WALL (     590 calls)

     General routines
     calbec       :      2.28s CPU      2.14s WALL (     758 calls)
     fft          :      0.22s CPU      0.22s WALL (      67 calls)
     ffts         :      0.02s CPU      0.02s WALL (       6 calls)
     fftw         :      9.44s CPU      8.28s WALL (    4946 calls)

     Parallel routines

     PWSCF        :     18.85s CPU     17.21s WALL


   This run was terminated on:  15:13:28  12Jun2026            

=------------------------------------------------------------------------------=
   JOB DONE.
=------------------------------------------------------------------------------=
