
     Program PWSCF v.7.5 starts on 12Jun2026 at 15:11:34 

     This program is part of the open-source Quantum ESPRESSO suite
     for quantum simulation of materials; please cite
         "P. Giannozzi et al., J. Phys.:Condens. Matter 21 395502 (2009);
         "P. Giannozzi et al., J. Phys.:Condens. Matter 29 465901 (2017);
         "P. Giannozzi et al., J. Chem. Phys. 152 154105 (2020);
          URL http://www.quantum-espresso.org", 
     in publications or presentations arising from this work. More details at
     http://www.quantum-espresso.org/quote

     Parallel version (MPI), running on     4 processors

     MPI processes distributed on     1 nodes
     13362 MiB available memory on the printing compute node when the environment starts

     Waiting for input...
     Reading input from standard input

     Current dimensions of program PWSCF are:
     Max number of different atomic species (ntypx) = 10
     Max number of k-points (npk) =  40000
     Max angular momentum in pseudopotentials (lmaxx) =  4

     R & G space division:  proc/nbgrp/npool/nimage =       4
     Subspace diagonalization in iterative solution of the eigenvalue problem:
     a serial algorithm will be used


     Parallelization info
     --------------------
     sticks:   dense  smooth     PW     G-vecs:    dense   smooth      PW
     Min         399     399    115                10521    10521    1653
     Max         400     400    116                10523    10523    1655
     Sum        1597    1597    463                42087    42087    6615

     Using Slab Decomposition



     bravais-lattice index     =            2
     lattice parameter (alat)  =      10.2600  a.u.
     unit-cell volume          =     270.0114 (a.u.)^3
     number of atoms/cell      =            2
     number of atomic types    =            1
     number of electrons       =         8.00
     number of Kohn-Sham states=            4
     kinetic-energy cutoff     =     110.0000  Ry
     charge density cutoff     =     440.0000  Ry
     scf convergence threshold =      1.0E-06
     mixing beta               =       0.6000
     number of iterations used =            8  plain     mixing
     Exchange-correlation= PBE
                           (   1   4   3   4   0   0   0)

     celldm(1)=  10.260000  celldm(2)=   0.000000  celldm(3)=   0.000000
     celldm(4)=   0.000000  celldm(5)=   0.000000  celldm(6)=   0.000000

     crystal axes: (cart. coord. in units of alat)
               a(1) = (  -0.500000   0.000000   0.500000 )  
               a(2) = (   0.000000   0.500000   0.500000 )  
               a(3) = (  -0.500000   0.500000   0.000000 )  

     reciprocal axes: (cart. coord. in units 2 pi/alat)
               b(1) = ( -1.000000 -1.000000  1.000000 )  
               b(2) = (  1.000000  1.000000  1.000000 )  
               b(3) = ( -1.000000  1.000000 -1.000000 )  


     PseudoPot. # 1 for Si read from file:
     /home/guest/Rishi-Tushar/silicon-scf/pseudopotential/Si.pbe-n-rrkjus_psl.1.0.0.UPF
     MD5 check sum: 0b0bb1205258b0d07b9f9672cf965d36
     Pseudo is Ultrasoft + core correction, Zval =  4.0
     Generated using "atomic" code by A. Dal Corso  v.5.1
     Using radial grid of 1141 points,  6 beta functions with: 
                l(1) =   0
                l(2) =   0
                l(3) =   1
                l(4) =   1
                l(5) =   2
                l(6) =   2
     Q(r) pseudized with 0 coefficients 


     atomic species   valence    mass     pseudopotential
     Si                4.00    28.08600     Si( 1.00)

     48 Sym. Ops., with inversion, found (24 have fractional translation)



   Cartesian axes

     site n.     atom                  positions (alat units)
         1        Si     tau(   1) = (   0.0000000   0.0000000   0.0000000  )
         2        Si     tau(   2) = (   0.2500000   0.2500000   0.2500000  )

     number of k points=    28
                       cart. coord. in units 2pi/alat
        k(    1) = (  -0.0833333   0.0833333   0.0833333), wk =   0.0185185
        k(    2) = (  -0.2500000   0.2500000  -0.0833333), wk =   0.0555556
        k(    3) = (  -0.4166667   0.4166667  -0.2500000), wk =   0.0555556
        k(    4) = (   0.4166667  -0.4166667   0.5833333), wk =   0.0555556
        k(    5) = (   0.2500000  -0.2500000   0.4166667), wk =   0.0555556
        k(    6) = (   0.0833333  -0.0833333   0.2500000), wk =   0.0555556
        k(    7) = (  -0.0833333   0.4166667   0.0833333), wk =   0.0555556
        k(    8) = (  -0.2500000   0.5833333  -0.0833333), wk =   0.1111111
        k(    9) = (   0.5833333  -0.2500000   0.7500000), wk =   0.1111111
        k(   10) = (   0.4166667  -0.0833333   0.5833333), wk =   0.1111111
        k(   11) = (   0.2500000   0.0833333   0.4166667), wk =   0.1111111
        k(   12) = (  -0.0833333   0.7500000   0.0833333), wk =   0.0555556
        k(   13) = (   0.7500000  -0.0833333   0.9166667), wk =   0.1111111
        k(   14) = (   0.5833333   0.0833333   0.7500000), wk =   0.1111111
        k(   15) = (   0.4166667   0.2500000   0.5833333), wk =   0.1111111
        k(   16) = (  -0.0833333  -0.9166667   0.0833333), wk =   0.0555556
        k(   17) = (  -0.2500000  -0.7500000  -0.0833333), wk =   0.1111111
        k(   18) = (  -0.0833333  -0.5833333   0.0833333), wk =   0.0555556
        k(   19) = (  -0.2500000   0.2500000   0.2500000), wk =   0.0185185
        k(   20) = (  -0.4166667   0.4166667   0.0833333), wk =   0.0555556
        k(   21) = (   0.4166667  -0.4166667   0.9166667), wk =   0.0555556
        k(   22) = (   0.2500000  -0.2500000   0.7500000), wk =   0.0555556
        k(   23) = (  -0.2500000   0.5833333   0.2500000), wk =   0.0555556
        k(   24) = (   0.5833333  -0.2500000   1.0833333), wk =   0.1111111
        k(   25) = (   0.4166667  -0.0833333   0.9166667), wk =   0.1111111
        k(   26) = (  -0.2500000  -1.0833333   0.2500000), wk =   0.0555556
        k(   27) = (  -0.4166667   0.4166667   0.4166667), wk =   0.0185185
        k(   28) = (   0.4166667  -0.4166667   1.2500000), wk =   0.0555556

     Dense  grid:    42087 G-vectors     FFT dimensions: (  60,  60,  60)

     Estimated max dynamical RAM per process >      43.00 MB

     Estimated total dynamical RAM >     172.01 MB

     Initial potential from superposition of free atoms

     starting charge       7.9989, renormalised to       8.0000
     Starting wfcs are    8 randomized atomic wfcs

     total cpu time spent up to now is        1.3 secs

     Self-consistent Calculation

     iteration #  1     ecut=   110.00 Ry     beta= 0.60
     Davidson diagonalization with overlap
     ethr =  1.00E-02,  avg # of iterations =  2.0

     Threshold (ethr) on eigenvalues was too large:
     Diagonalizing with lowered threshold

     Davidson diagonalization with overlap
     ethr =  6.18E-04,  avg # of iterations =  1.5

     total cpu time spent up to now is        3.7 secs

     total energy              =     -22.83816846 Ry
     estimated scf accuracy    <       0.05352749 Ry

     iteration #  2     ecut=   110.00 Ry     beta= 0.60
     Davidson diagonalization with overlap
     ethr =  6.69E-04,  avg # of iterations =  1.0

     total cpu time spent up to now is        4.8 secs

     total energy              =     -22.83876409 Ry
     estimated scf accuracy    <       0.00619959 Ry

     iteration #  3     ecut=   110.00 Ry     beta= 0.60
     Davidson diagonalization with overlap
     ethr =  7.75E-05,  avg # of iterations =  2.1

     total cpu time spent up to now is        6.3 secs

     total energy              =     -22.83971395 Ry
     estimated scf accuracy    <       0.00014348 Ry

     iteration #  4     ecut=   110.00 Ry     beta= 0.60
     Davidson diagonalization with overlap
     ethr =  1.79E-06,  avg # of iterations =  4.4

     total cpu time spent up to now is        8.0 secs

     total energy              =     -22.83982872 Ry
     estimated scf accuracy    <       0.00002359 Ry

     iteration #  5     ecut=   110.00 Ry     beta= 0.60
     Davidson diagonalization with overlap
     ethr =  2.95E-07,  avg # of iterations =  3.0

     total cpu time spent up to now is        9.5 secs

     End of self-consistent calculation

          k =-0.0833 0.0833 0.0833 (  5185 PWs)   bands (ev):

    -5.6637   5.3533   6.0687   6.0687

          k =-0.2500 0.2500-0.0833 (  5245 PWs)   bands (ev):

    -5.1852   3.2679   4.8249   5.8586

          k =-0.4167 0.4167-0.2500 (  5260 PWs)   bands (ev):

    -4.0879   0.4922   4.3609   5.2181

          k = 0.4167-0.4167 0.5833 (  5260 PWs)   bands (ev):

    -3.3845  -0.6591   4.4294   4.8348

          k = 0.2500-0.2500 0.4167 (  5268 PWs)   bands (ev):

    -4.5018   1.3430   4.8936   4.9313

          k = 0.0833-0.0833 0.2500 (  5223 PWs)   bands (ev):

    -5.4222   4.2839   5.4173   5.6087

          k =-0.0833 0.4167 0.0833 (  5252 PWs)   bands (ev):

    -4.9432   3.0857   4.6705   4.6830

          k =-0.2500 0.5833-0.0833 (  5260 PWs)   bands (ev):

    -4.0289   1.2391   3.3425   4.2947

          k = 0.5833-0.2500 0.7500 (  5265 PWs)   bands (ev):

    -2.9055  -0.5242   2.7401   4.0653

          k = 0.4167-0.0833 0.5833 (  5265 PWs)   bands (ev):

    -3.6322   0.5416   2.6952   4.5558

          k = 0.2500 0.0833 0.4167 (  5250 PWs)   bands (ev):

    -4.7167   2.2417   4.0438   5.2300

          k =-0.0833 0.7500 0.0833 (  5265 PWs)   bands (ev):

    -3.3147   0.4129   3.3055   3.6491

          k = 0.7500-0.0833 0.9167 (  5270 PWs)   bands (ev):

    -2.1126  -0.9326   2.4562   3.2384

          k = 0.5833 0.0833 0.7500 (  5268 PWs)   bands (ev):

    -2.4837  -0.5991   1.9706   3.7875

          k = 0.4167 0.2500 0.5833 (  5263 PWs)   bands (ev):

    -3.5189  -0.1525   3.6473   4.6549

          k =-0.0833-0.9167 0.0833 (  5272 PWs)   bands (ev):

    -2.2057  -0.9411   3.0343   3.4328

          k =-0.2500-0.7500-0.0833 (  5264 PWs)   bands (ev):

    -3.1449   0.1877   2.7814   3.5806

          k =-0.0833-0.5833 0.0833 (  5261 PWs)   bands (ev):

    -4.2356   1.7833   3.8544   4.0734

          k =-0.2500 0.2500 0.2500 (  5264 PWs)   bands (ev):

    -4.9547   2.2826   5.4517   5.4517

          k =-0.4167 0.4167 0.0833 (  5274 PWs)   bands (ev):

    -4.2727   1.3503   3.3064   5.2822

          k = 0.4167-0.4167 0.9167 (  5265 PWs)   bands (ev):

    -3.0874  -0.0944   2.1917   4.4902

          k = 0.2500-0.2500 0.7500 (  5264 PWs)   bands (ev):

    -3.0353  -0.1739   2.6748   4.0048

          k =-0.2500 0.5833 0.2500 (  5257 PWs)   bands (ev):

    -3.8466   0.5376   3.7781   4.3801

          k = 0.5833-0.2500 1.0833 (  5259 PWs)   bands (ev):

    -2.8396  -0.2049   2.2919   3.5774

          k = 0.4167-0.0833 0.9167 (  5261 PWs)   bands (ev):

    -2.0043  -0.9404   2.1241   2.9048

          k =-0.2500-1.0833 0.2500 (  5264 PWs)   bands (ev):

    -2.2156  -0.8479   1.9972   3.8092

          k =-0.4167 0.4167 0.4167 (  5264 PWs)   bands (ev):

    -3.7564  -0.2564   5.0621   5.0621

          k = 0.4167-0.4167 1.2500 (  5265 PWs)   bands (ev):

    -3.1480  -0.5577   3.2189   4.6181

     highest occupied level (ev):     6.0687

!    total energy              =     -22.83983709 Ry
     estimated scf accuracy    <       0.00000064 Ry

     The total energy is the sum of the following terms:
     one-electron contribution =       5.17102197 Ry
     hartree contribution      =       1.09978698 Ry
     xc contribution           =     -12.30971646 Ry
     ewald contribution        =     -16.80092957 Ry

     convergence has been achieved in   5 iterations

     Writing all to output data dir /home/guest/Rishi-Tushar/silicon-scf/output/silicon.save/ :
     XML data file, charge density, pseudopotentials, collected wavefunctions

     init_run     :      1.28s CPU      1.19s WALL (       1 calls)
     electrons    :      9.70s CPU      8.20s WALL (       1 calls)

     Called by init_run:
     wfcinit      :      0.78s CPU      0.67s WALL (       1 calls)
     potinit      :      0.06s CPU      0.06s WALL (       1 calls)
     hinit0       :      0.30s CPU      0.31s WALL (       1 calls)

     Called by electrons:
     c_bands      :      7.35s CPU      6.16s WALL (       6 calls)
     sum_band     :      1.81s CPU      1.56s WALL (       6 calls)
     v_of_rho     :      0.28s CPU      0.27s WALL (       6 calls)
     newd         :      0.33s CPU      0.30s WALL (       6 calls)
     mix_rho      :      0.01s CPU      0.01s WALL (       6 calls)

     Called by c_bands:
     init_us_2    :      0.33s CPU      0.27s WALL (     364 calls)
     cegterg      :      6.82s CPU      5.71s WALL (     168 calls)

     Called by *egterg:
     cdiaghg      :      0.05s CPU      0.04s WALL (     530 calls)
     h_psi        :      6.99s CPU      5.91s WALL (     586 calls)
     s_psi        :      0.14s CPU      0.10s WALL (     586 calls)
     g_psi        :      0.04s CPU      0.02s WALL (     390 calls)

     Called by h_psi:
     h_psi:calbec :      0.29s CPU      0.25s WALL (     586 calls)
     vloc_psi     :      6.54s CPU      5.55s WALL (     586 calls)
                                        0.00s GPU  (     586 calls)
     add_vuspsi   :      0.14s CPU      0.10s WALL (     586 calls)

     General routines
     calbec       :      0.40s CPU      0.38s WALL (     754 calls)
     fft          :      0.21s CPU      0.20s WALL (      67 calls)
     ffts         :      0.01s CPU      0.01s WALL (       6 calls)
     fftw         :      6.91s CPU      5.91s WALL (    4968 calls)

     Parallel routines

     PWSCF        :     11.15s CPU      9.58s WALL


   This run was terminated on:  15:11:44  12Jun2026            

=------------------------------------------------------------------------------=
   JOB DONE.
=------------------------------------------------------------------------------=
