
     Program PWSCF v.7.5 starts on 12Jun2026 at 15:55:54 

     This program is part of the open-source Quantum ESPRESSO suite
     for quantum simulation of materials; please cite
         "P. Giannozzi et al., J. Phys.:Condens. Matter 21 395502 (2009);
         "P. Giannozzi et al., J. Phys.:Condens. Matter 29 465901 (2017);
         "P. Giannozzi et al., J. Chem. Phys. 152 154105 (2020);
          URL http://www.quantum-espresso.org", 
     in publications or presentations arising from this work. More details at
     http://www.quantum-espresso.org/quote

     Parallel version (MPI), running on     4 processors

     MPI processes distributed on     1 nodes
     12130 MiB available memory on the printing compute node when the environment starts

     Waiting for input...
     Reading input from standard input

     Current dimensions of program PWSCF are:
     Max number of different atomic species (ntypx) = 10
     Max number of k-points (npk) =  40000
     Max angular momentum in pseudopotentials (lmaxx) =  4

     R & G space division:  proc/nbgrp/npool/nimage =       4
     Subspace diagonalization in iterative solution of the eigenvalue problem:
     a serial algorithm will be used


     Parallelization info
     --------------------
     sticks:   dense  smooth     PW     G-vecs:    dense   smooth      PW
     Min         183     183     55                 3234     3234     556
     Max         184     184     56                 3236     3236     558
     Sum         733     733    223                12939    12939    2229

     Using Slab Decomposition



     bravais-lattice index     =            2
     lattice parameter (alat)  =      10.2600  a.u.
     unit-cell volume          =     270.0114 (a.u.)^3
     number of atoms/cell      =            2
     number of atomic types    =            1
     number of electrons       =         8.00
     number of Kohn-Sham states=            4
     kinetic-energy cutoff     =      50.0000  Ry
     charge density cutoff     =     200.0000  Ry
     scf convergence threshold =      1.0E-06
     mixing beta               =       0.6000
     number of iterations used =            8  plain     mixing
     Exchange-correlation= PBE
                           (   1   4   3   4   0   0   0)

     celldm(1)=  10.260000  celldm(2)=   0.000000  celldm(3)=   0.000000
     celldm(4)=   0.000000  celldm(5)=   0.000000  celldm(6)=   0.000000

     crystal axes: (cart. coord. in units of alat)
               a(1) = (  -0.500000   0.000000   0.500000 )  
               a(2) = (   0.000000   0.500000   0.500000 )  
               a(3) = (  -0.500000   0.500000   0.000000 )  

     reciprocal axes: (cart. coord. in units 2 pi/alat)
               b(1) = ( -1.000000 -1.000000  1.000000 )  
               b(2) = (  1.000000  1.000000  1.000000 )  
               b(3) = ( -1.000000  1.000000 -1.000000 )  


     PseudoPot. # 1 for Si read from file:
     /home/guest/Rishi-Tushar/silicon-scf/pseudopotential/Si.pbe-n-rrkjus_psl.1.0.0.UPF
     MD5 check sum: 0b0bb1205258b0d07b9f9672cf965d36
     Pseudo is Ultrasoft + core correction, Zval =  4.0
     Generated using "atomic" code by A. Dal Corso  v.5.1
     Using radial grid of 1141 points,  6 beta functions with: 
                l(1) =   0
                l(2) =   0
                l(3) =   1
                l(4) =   1
                l(5) =   2
                l(6) =   2
     Q(r) pseudized with 0 coefficients 


     atomic species   valence    mass     pseudopotential
     Si                4.00    28.08600     Si( 1.00)

     48 Sym. Ops., with inversion, found (24 have fractional translation)



   Cartesian axes

     site n.     atom                  positions (alat units)
         1        Si     tau(   1) = (   0.0000000   0.0000000   0.0000000  )
         2        Si     tau(   2) = (   0.2500000   0.2500000   0.2500000  )

     number of k points=    28
                       cart. coord. in units 2pi/alat
        k(    1) = (  -0.0833333   0.0833333   0.0833333), wk =   0.0185185
        k(    2) = (  -0.2500000   0.2500000  -0.0833333), wk =   0.0555556
        k(    3) = (  -0.4166667   0.4166667  -0.2500000), wk =   0.0555556
        k(    4) = (   0.4166667  -0.4166667   0.5833333), wk =   0.0555556
        k(    5) = (   0.2500000  -0.2500000   0.4166667), wk =   0.0555556
        k(    6) = (   0.0833333  -0.0833333   0.2500000), wk =   0.0555556
        k(    7) = (  -0.0833333   0.4166667   0.0833333), wk =   0.0555556
        k(    8) = (  -0.2500000   0.5833333  -0.0833333), wk =   0.1111111
        k(    9) = (   0.5833333  -0.2500000   0.7500000), wk =   0.1111111
        k(   10) = (   0.4166667  -0.0833333   0.5833333), wk =   0.1111111
        k(   11) = (   0.2500000   0.0833333   0.4166667), wk =   0.1111111
        k(   12) = (  -0.0833333   0.7500000   0.0833333), wk =   0.0555556
        k(   13) = (   0.7500000  -0.0833333   0.9166667), wk =   0.1111111
        k(   14) = (   0.5833333   0.0833333   0.7500000), wk =   0.1111111
        k(   15) = (   0.4166667   0.2500000   0.5833333), wk =   0.1111111
        k(   16) = (  -0.0833333  -0.9166667   0.0833333), wk =   0.0555556
        k(   17) = (  -0.2500000  -0.7500000  -0.0833333), wk =   0.1111111
        k(   18) = (  -0.0833333  -0.5833333   0.0833333), wk =   0.0555556
        k(   19) = (  -0.2500000   0.2500000   0.2500000), wk =   0.0185185
        k(   20) = (  -0.4166667   0.4166667   0.0833333), wk =   0.0555556
        k(   21) = (   0.4166667  -0.4166667   0.9166667), wk =   0.0555556
        k(   22) = (   0.2500000  -0.2500000   0.7500000), wk =   0.0555556
        k(   23) = (  -0.2500000   0.5833333   0.2500000), wk =   0.0555556
        k(   24) = (   0.5833333  -0.2500000   1.0833333), wk =   0.1111111
        k(   25) = (   0.4166667  -0.0833333   0.9166667), wk =   0.1111111
        k(   26) = (  -0.2500000  -1.0833333   0.2500000), wk =   0.0555556
        k(   27) = (  -0.4166667   0.4166667   0.4166667), wk =   0.0185185
        k(   28) = (   0.4166667  -0.4166667   1.2500000), wk =   0.0555556

     Dense  grid:    12939 G-vectors     FFT dimensions: (  36,  36,  36)

     Estimated max dynamical RAM per process >      13.50 MB

     Estimated total dynamical RAM >      54.00 MB

     Initial potential from superposition of free atoms

     starting charge       7.9989, renormalised to       8.0000
     Starting wfcs are    8 randomized atomic wfcs

     total cpu time spent up to now is        0.6 secs

     Self-consistent Calculation

     iteration #  1     ecut=    50.00 Ry     beta= 0.60
     Davidson diagonalization with overlap
     ethr =  1.00E-02,  avg # of iterations =  2.0

     Threshold (ethr) on eigenvalues was too large:
     Diagonalizing with lowered threshold

     Davidson diagonalization with overlap
     ethr =  6.20E-04,  avg # of iterations =  1.5

     total cpu time spent up to now is        7.2 secs

     total energy              =     -22.83809592 Ry
     estimated scf accuracy    <       0.05380962 Ry

     iteration #  2     ecut=    50.00 Ry     beta= 0.60
     Davidson diagonalization with overlap
     ethr =  6.73E-04,  avg # of iterations =  1.0

     total cpu time spent up to now is        7.4 secs

     total energy              =     -22.83869524 Ry
     estimated scf accuracy    <       0.00617595 Ry

     iteration #  3     ecut=    50.00 Ry     beta= 0.60
     Davidson diagonalization with overlap
     ethr =  7.72E-05,  avg # of iterations =  2.1

     total cpu time spent up to now is        7.8 secs

     total energy              =     -22.83966232 Ry
     estimated scf accuracy    <       0.00015110 Ry

     iteration #  4     ecut=    50.00 Ry     beta= 0.60
     Davidson diagonalization with overlap
     ethr =  1.89E-06,  avg # of iterations =  4.1

     total cpu time spent up to now is        8.2 secs

     total energy              =     -22.83977049 Ry
     estimated scf accuracy    <       0.00003101 Ry

     iteration #  5     ecut=    50.00 Ry     beta= 0.60
     Davidson diagonalization with overlap
     ethr =  3.88E-07,  avg # of iterations =  2.8

     total cpu time spent up to now is        8.5 secs

     End of self-consistent calculation

          k =-0.0833 0.0833 0.0833 (  1606 PWs)   bands (ev):

    -5.6634   5.3537   6.0692   6.0692

          k =-0.2500 0.2500-0.0833 (  1600 PWs)   bands (ev):

    -5.1849   3.2683   4.8252   5.8591

          k =-0.4167 0.4167-0.2500 (  1611 PWs)   bands (ev):

    -4.0876   0.4925   4.3613   5.2185

          k = 0.4167-0.4167 0.5833 (  1613 PWs)   bands (ev):

    -3.3841  -0.6588   4.4297   4.8352

          k = 0.2500-0.2500 0.4167 (  1606 PWs)   bands (ev):

    -4.5015   1.3433   4.8940   4.9317

          k = 0.0833-0.0833 0.2500 (  1599 PWs)   bands (ev):

    -5.4219   4.2843   5.4177   5.6092

          k =-0.0833 0.4167 0.0833 (  1612 PWs)   bands (ev):

    -4.9429   3.0860   4.6709   4.6834

          k =-0.2500 0.5833-0.0833 (  1611 PWs)   bands (ev):

    -4.0286   1.2395   3.3428   4.2950

          k = 0.5833-0.2500 0.7500 (  1607 PWs)   bands (ev):

    -2.9052  -0.5239   2.7404   4.0657

          k = 0.4167-0.0833 0.5833 (  1608 PWs)   bands (ev):

    -3.6319   0.5419   2.6955   4.5562

          k = 0.2500 0.0833 0.4167 (  1607 PWs)   bands (ev):

    -4.7164   2.2421   4.0441   5.2303

          k =-0.0833 0.7500 0.0833 (  1618 PWs)   bands (ev):

    -3.3143   0.4133   3.3058   3.6495

          k = 0.7500-0.0833 0.9167 (  1620 PWs)   bands (ev):

    -2.1123  -0.9323   2.4564   3.2387

          k = 0.5833 0.0833 0.7500 (  1614 PWs)   bands (ev):

    -2.4834  -0.5987   1.9709   3.7878

          k = 0.4167 0.2500 0.5833 (  1612 PWs)   bands (ev):

    -3.5185  -0.1522   3.6477   4.6553

          k =-0.0833-0.9167 0.0833 (  1620 PWs)   bands (ev):

    -2.2054  -0.9408   3.0346   3.4332

          k =-0.2500-0.7500-0.0833 (  1621 PWs)   bands (ev):

    -3.1445   0.1881   2.7816   3.5809

          k =-0.0833-0.5833 0.0833 (  1617 PWs)   bands (ev):

    -4.2352   1.7837   3.8547   4.0737

          k =-0.2500 0.2500 0.2500 (  1618 PWs)   bands (ev):

    -4.9544   2.2829   5.4521   5.4521

          k =-0.4167 0.4167 0.0833 (  1613 PWs)   bands (ev):

    -4.2723   1.3506   3.3067   5.2826

          k = 0.4167-0.4167 0.9167 (  1607 PWs)   bands (ev):

    -3.0871  -0.0941   2.1920   4.4905

          k = 0.2500-0.2500 0.7500 (  1617 PWs)   bands (ev):

    -3.0350  -0.1735   2.6750   4.0052

          k =-0.2500 0.5833 0.2500 (  1610 PWs)   bands (ev):

    -3.8463   0.5379   3.7784   4.3804

          k = 0.5833-0.2500 1.0833 (  1611 PWs)   bands (ev):

    -2.8392  -0.2045   2.2921   3.5777

          k = 0.4167-0.0833 0.9167 (  1613 PWs)   bands (ev):

    -2.0039  -0.9401   2.1244   2.9051

          k =-0.2500-1.0833 0.2500 (  1620 PWs)   bands (ev):

    -2.2153  -0.8476   1.9974   3.8096

          k =-0.4167 0.4167 0.4167 (  1610 PWs)   bands (ev):

    -3.7560  -0.2562   5.0625   5.0625

          k = 0.4167-0.4167 1.2500 (  1602 PWs)   bands (ev):

    -3.1476  -0.5574   3.2192   4.6185

     highest occupied level (ev):     6.0692

!    total energy              =     -22.83977945 Ry
     estimated scf accuracy    <       0.00000067 Ry

     The total energy is the sum of the following terms:
     one-electron contribution =       5.17105047 Ry
     hartree contribution      =       1.09987863 Ry
     xc contribution           =     -12.30977894 Ry
     ewald contribution        =     -16.80092961 Ry

     convergence has been achieved in   5 iterations

     Writing all to output data dir /home/guest/Rishi-Tushar/silicon-scf/output/silicon.save/ :
     XML data file, charge density, pseudopotentials, collected wavefunctions

     init_run     :      0.43s CPU      0.42s WALL (       1 calls)
     electrons    :      6.69s CPU      7.99s WALL (       1 calls)

     Called by init_run:
     wfcinit      :      0.18s CPU      0.16s WALL (       1 calls)
     potinit      :      0.02s CPU      0.02s WALL (       1 calls)
     hinit0       :      0.21s CPU      0.21s WALL (       1 calls)

     Called by electrons:
     c_bands      :      5.35s CPU      6.43s WALL (       6 calls)
     sum_band     :      1.18s CPU      1.41s WALL (       6 calls)
     v_of_rho     :      0.06s CPU      0.06s WALL (       6 calls)
     newd         :      0.10s CPU      0.10s WALL (       6 calls)
     mix_rho      :      0.01s CPU      0.01s WALL (       6 calls)

     Called by c_bands:
     init_us_2    :      0.09s CPU      0.08s WALL (     364 calls)
     cegterg      :      5.01s CPU      6.07s WALL (     168 calls)

     Called by *egterg:
     cdiaghg      :      0.21s CPU      0.26s WALL (     517 calls)
     h_psi        :      3.65s CPU      4.29s WALL (     573 calls)
     s_psi        :      0.04s CPU      0.04s WALL (     573 calls)
     g_psi        :      0.01s CPU      0.01s WALL (     377 calls)

     Called by h_psi:
     h_psi:calbec :      0.38s CPU      0.59s WALL (     573 calls)
     vloc_psi     :      3.21s CPU      3.65s WALL (     573 calls)
                                        0.00s GPU  (     573 calls)
     add_vuspsi   :      0.05s CPU      0.05s WALL (     573 calls)

     General routines
     calbec       :      0.68s CPU      0.96s WALL (     741 calls)
     fft          :      0.10s CPU      0.10s WALL (      67 calls)
     ffts         :      0.01s CPU      0.01s WALL (       6 calls)
     fftw         :      3.78s CPU      4.38s WALL (    4902 calls)

     Parallel routines

     PWSCF        :      7.27s CPU      8.57s WALL


   This run was terminated on:  15:56: 2  12Jun2026            

=------------------------------------------------------------------------------=
   JOB DONE.
=------------------------------------------------------------------------------=
