
     Program PWSCF v.7.5 starts on 12Jun2026 at 15:55:23 

     This program is part of the open-source Quantum ESPRESSO suite
     for quantum simulation of materials; please cite
         "P. Giannozzi et al., J. Phys.:Condens. Matter 21 395502 (2009);
         "P. Giannozzi et al., J. Phys.:Condens. Matter 29 465901 (2017);
         "P. Giannozzi et al., J. Chem. Phys. 152 154105 (2020);
          URL http://www.quantum-espresso.org", 
     in publications or presentations arising from this work. More details at
     http://www.quantum-espresso.org/quote

     Parallel version (MPI), running on     4 processors

     MPI processes distributed on     1 nodes
     12149 MiB available memory on the printing compute node when the environment starts

     Waiting for input...
     Reading input from standard input

     Current dimensions of program PWSCF are:
     Max number of different atomic species (ntypx) = 10
     Max number of k-points (npk) =  40000
     Max angular momentum in pseudopotentials (lmaxx) =  4

     R & G space division:  proc/nbgrp/npool/nimage =       4
     Subspace diagonalization in iterative solution of the eigenvalue problem:
     a serial algorithm will be used


     Parallelization info
     --------------------
     sticks:   dense  smooth     PW     G-vecs:    dense   smooth      PW
     Min         183     183     52                 3234     3234     497
     Max         184     184     54                 3236     3236     498
     Sum         733     733    211                12939    12939    1989

     Using Slab Decomposition



     bravais-lattice index     =            2
     lattice parameter (alat)  =      10.2600  a.u.
     unit-cell volume          =     270.0114 (a.u.)^3
     number of atoms/cell      =            2
     number of atomic types    =            1
     number of electrons       =         8.00
     number of Kohn-Sham states=            4
     kinetic-energy cutoff     =      50.0000  Ry
     charge density cutoff     =     200.0000  Ry
     scf convergence threshold =      1.0E-06
     mixing beta               =       0.6000
     number of iterations used =            8  plain     mixing
     Exchange-correlation= PBE
                           (   1   4   3   4   0   0   0)

     celldm(1)=  10.260000  celldm(2)=   0.000000  celldm(3)=   0.000000
     celldm(4)=   0.000000  celldm(5)=   0.000000  celldm(6)=   0.000000

     crystal axes: (cart. coord. in units of alat)
               a(1) = (  -0.500000   0.000000   0.500000 )  
               a(2) = (   0.000000   0.500000   0.500000 )  
               a(3) = (  -0.500000   0.500000   0.000000 )  

     reciprocal axes: (cart. coord. in units 2 pi/alat)
               b(1) = ( -1.000000 -1.000000  1.000000 )  
               b(2) = (  1.000000  1.000000  1.000000 )  
               b(3) = ( -1.000000  1.000000 -1.000000 )  


     PseudoPot. # 1 for Si read from file:
     /home/guest/Rishi-Tushar/silicon-scf/pseudopotential/Si.pbe-n-rrkjus_psl.1.0.0.UPF
     MD5 check sum: 0b0bb1205258b0d07b9f9672cf965d36
     Pseudo is Ultrasoft + core correction, Zval =  4.0
     Generated using "atomic" code by A. Dal Corso  v.5.1
     Using radial grid of 1141 points,  6 beta functions with: 
                l(1) =   0
                l(2) =   0
                l(3) =   1
                l(4) =   1
                l(5) =   2
                l(6) =   2
     Q(r) pseudized with 0 coefficients 


     atomic species   valence    mass     pseudopotential
     Si                4.00    28.08600     Si( 1.00)

     48 Sym. Ops., with inversion, found (24 have fractional translation)



   Cartesian axes

     site n.     atom                  positions (alat units)
         1        Si     tau(   1) = (   0.0000000   0.0000000   0.0000000  )
         2        Si     tau(   2) = (   0.2500000   0.2500000   0.2500000  )

     number of k points=     2
                       cart. coord. in units 2pi/alat
        k(    1) = (  -0.2500000   0.2500000   0.2500000), wk =   0.5000000
        k(    2) = (   0.2500000  -0.2500000   0.7500000), wk =   1.5000000

     Dense  grid:    12939 G-vectors     FFT dimensions: (  36,  36,  36)

     Estimated max dynamical RAM per process >      12.86 MB

     Estimated total dynamical RAM >      51.44 MB

     Initial potential from superposition of free atoms

     starting charge       7.9989, renormalised to       8.0000
     Starting wfcs are    8 randomized atomic wfcs

     total cpu time spent up to now is        0.4 secs

     Self-consistent Calculation

     iteration #  1     ecut=    50.00 Ry     beta= 0.60
     Davidson diagonalization with overlap
     ethr =  1.00E-02,  avg # of iterations =  2.0

     Threshold (ethr) on eigenvalues was too large:
     Diagonalizing with lowered threshold

     Davidson diagonalization with overlap
     ethr =  6.75E-04,  avg # of iterations =  1.5

     total cpu time spent up to now is        0.5 secs

     total energy              =     -22.82629155 Ry
     estimated scf accuracy    <       0.05863311 Ry

     iteration #  2     ecut=    50.00 Ry     beta= 0.60
     Davidson diagonalization with overlap
     ethr =  7.33E-04,  avg # of iterations =  1.0

     total cpu time spent up to now is        0.6 secs

     total energy              =     -22.82678382 Ry
     estimated scf accuracy    <       0.00681342 Ry

     iteration #  3     ecut=    50.00 Ry     beta= 0.60
     Davidson diagonalization with overlap
     ethr =  8.52E-05,  avg # of iterations =  2.0

     total cpu time spent up to now is        0.6 secs

     total energy              =     -22.82772554 Ry
     estimated scf accuracy    <       0.00016102 Ry

     iteration #  4     ecut=    50.00 Ry     beta= 0.60
     Davidson diagonalization with overlap
     ethr =  2.01E-06,  avg # of iterations =  4.0

     total cpu time spent up to now is        0.7 secs

     total energy              =     -22.82780648 Ry
     estimated scf accuracy    <       0.00003970 Ry

     iteration #  5     ecut=    50.00 Ry     beta= 0.60
     Davidson diagonalization with overlap
     ethr =  4.96E-07,  avg # of iterations =  2.5

     total cpu time spent up to now is        0.8 secs

     total energy              =     -22.82781834 Ry
     estimated scf accuracy    <       0.00000140 Ry

     iteration #  6     ecut=    50.00 Ry     beta= 0.60
     Davidson diagonalization with overlap
     ethr =  1.75E-08,  avg # of iterations =  6.5

     total cpu time spent up to now is        0.9 secs

     End of self-consistent calculation

          k =-0.2500 0.2500 0.2500 (  1618 PWs)   bands (ev):

    -4.9272   2.3111   5.4821   5.4821

          k = 0.2500-0.2500 0.7500 (  1617 PWs)   bands (ev):

    -3.0065  -0.1449   2.7000   4.0316

     highest occupied level (ev):     5.4821

!    total energy              =     -22.82782039 Ry
     estimated scf accuracy    <          3.9E-09 Ry

     The total energy is the sum of the following terms:
     one-electron contribution =       5.17286412 Ry
     hartree contribution      =       1.11983948 Ry
     xc contribution           =     -12.31959437 Ry
     ewald contribution        =     -16.80092961 Ry

     convergence has been achieved in   6 iterations
     Message from routine punch:
     Nothing written, as per user request (disk_io='none')

     init_run     :      0.27s CPU      0.27s WALL (       1 calls)
     electrons    :      0.52s CPU      0.47s WALL (       1 calls)

     Called by init_run:
     wfcinit      :      0.02s CPU      0.01s WALL (       1 calls)
     potinit      :      0.02s CPU      0.02s WALL (       1 calls)
     hinit0       :      0.21s CPU      0.21s WALL (       1 calls)

     Called by electrons:
     c_bands      :      0.16s CPU      0.15s WALL (       7 calls)
     sum_band     :      0.19s CPU      0.16s WALL (       7 calls)
     v_of_rho     :      0.07s CPU      0.07s WALL (       7 calls)
     newd         :      0.12s CPU      0.11s WALL (       7 calls)
     mix_rho      :      0.00s CPU      0.00s WALL (       7 calls)

     Called by c_bands:
     init_us_2    :      0.01s CPU      0.01s WALL (      30 calls)
     cegterg      :      0.15s CPU      0.14s WALL (      14 calls)

     Called by *egterg:
     cdiaghg      :      0.00s CPU      0.00s WALL (      51 calls)
     h_psi        :      0.14s CPU      0.13s WALL (      55 calls)
     s_psi        :      0.00s CPU      0.00s WALL (      55 calls)
     g_psi        :      0.00s CPU      0.00s WALL (      39 calls)

     Called by h_psi:
     h_psi:calbec :      0.01s CPU      0.01s WALL (      55 calls)
     vloc_psi     :      0.12s CPU      0.11s WALL (      55 calls)
                                        0.00s GPU  (      55 calls)
     add_vuspsi   :      0.00s CPU      0.00s WALL (      55 calls)

     General routines
     calbec       :      0.01s CPU      0.02s WALL (      69 calls)
     fft          :      0.10s CPU      0.10s WALL (      78 calls)
     ffts         :      0.00s CPU      0.00s WALL (       7 calls)
     fftw         :      0.13s CPU      0.12s WALL (     442 calls)

     Parallel routines

     PWSCF        :      0.90s CPU      0.85s WALL


   This run was terminated on:  15:55:24  12Jun2026            

=------------------------------------------------------------------------------=
   JOB DONE.
=------------------------------------------------------------------------------=
