
     Program PWSCF v.7.5 starts on 12Jun2026 at 15:55:35 

     This program is part of the open-source Quantum ESPRESSO suite
     for quantum simulation of materials; please cite
         "P. Giannozzi et al., J. Phys.:Condens. Matter 21 395502 (2009);
         "P. Giannozzi et al., J. Phys.:Condens. Matter 29 465901 (2017);
         "P. Giannozzi et al., J. Chem. Phys. 152 154105 (2020);
          URL http://www.quantum-espresso.org", 
     in publications or presentations arising from this work. More details at
     http://www.quantum-espresso.org/quote

     Parallel version (MPI), running on     4 processors

     MPI processes distributed on     1 nodes
     12136 MiB available memory on the printing compute node when the environment starts

     Waiting for input...
     Reading input from standard input

     Current dimensions of program PWSCF are:
     Max number of different atomic species (ntypx) = 10
     Max number of k-points (npk) =  40000
     Max angular momentum in pseudopotentials (lmaxx) =  4

     R & G space division:  proc/nbgrp/npool/nimage =       4
     Subspace diagonalization in iterative solution of the eigenvalue problem:
     a serial algorithm will be used


     Parallelization info
     --------------------
     sticks:   dense  smooth     PW     G-vecs:    dense   smooth      PW
     Min         183     183     55                 3234     3234     533
     Max         184     184     57                 3236     3236     534
     Sum         733     733    223                12939    12939    2133

     Using Slab Decomposition



     bravais-lattice index     =            2
     lattice parameter (alat)  =      10.2600  a.u.
     unit-cell volume          =     270.0114 (a.u.)^3
     number of atoms/cell      =            2
     number of atomic types    =            1
     number of electrons       =         8.00
     number of Kohn-Sham states=            4
     kinetic-energy cutoff     =      50.0000  Ry
     charge density cutoff     =     200.0000  Ry
     scf convergence threshold =      1.0E-06
     mixing beta               =       0.6000
     number of iterations used =            8  plain     mixing
     Exchange-correlation= PBE
                           (   1   4   3   4   0   0   0)

     celldm(1)=  10.260000  celldm(2)=   0.000000  celldm(3)=   0.000000
     celldm(4)=   0.000000  celldm(5)=   0.000000  celldm(6)=   0.000000

     crystal axes: (cart. coord. in units of alat)
               a(1) = (  -0.500000   0.000000   0.500000 )  
               a(2) = (   0.000000   0.500000   0.500000 )  
               a(3) = (  -0.500000   0.500000   0.000000 )  

     reciprocal axes: (cart. coord. in units 2 pi/alat)
               b(1) = ( -1.000000 -1.000000  1.000000 )  
               b(2) = (  1.000000  1.000000  1.000000 )  
               b(3) = ( -1.000000  1.000000 -1.000000 )  


     PseudoPot. # 1 for Si read from file:
     /home/guest/Rishi-Tushar/silicon-scf/pseudopotential/Si.pbe-n-rrkjus_psl.1.0.0.UPF
     MD5 check sum: 0b0bb1205258b0d07b9f9672cf965d36
     Pseudo is Ultrasoft + core correction, Zval =  4.0
     Generated using "atomic" code by A. Dal Corso  v.5.1
     Using radial grid of 1141 points,  6 beta functions with: 
                l(1) =   0
                l(2) =   0
                l(3) =   1
                l(4) =   1
                l(5) =   2
                l(6) =   2
     Q(r) pseudized with 0 coefficients 


     atomic species   valence    mass     pseudopotential
     Si                4.00    28.08600     Si( 1.00)

     48 Sym. Ops., with inversion, found (24 have fractional translation)



   Cartesian axes

     site n.     atom                  positions (alat units)
         1        Si     tau(   1) = (   0.0000000   0.0000000   0.0000000  )
         2        Si     tau(   2) = (   0.2500000   0.2500000   0.2500000  )

     number of k points=    10
                       cart. coord. in units 2pi/alat
        k(    1) = (  -0.1250000   0.1250000   0.1250000), wk =   0.0625000
        k(    2) = (  -0.3750000   0.3750000  -0.1250000), wk =   0.1875000
        k(    3) = (   0.3750000  -0.3750000   0.6250000), wk =   0.1875000
        k(    4) = (   0.1250000  -0.1250000   0.3750000), wk =   0.1875000
        k(    5) = (  -0.1250000   0.6250000   0.1250000), wk =   0.1875000
        k(    6) = (   0.6250000  -0.1250000   0.8750000), wk =   0.3750000
        k(    7) = (   0.3750000   0.1250000   0.6250000), wk =   0.3750000
        k(    8) = (  -0.1250000  -0.8750000   0.1250000), wk =   0.1875000
        k(    9) = (  -0.3750000   0.3750000   0.3750000), wk =   0.0625000
        k(   10) = (   0.3750000  -0.3750000   1.1250000), wk =   0.1875000

     Dense  grid:    12939 G-vectors     FFT dimensions: (  36,  36,  36)

     Estimated max dynamical RAM per process >      13.06 MB

     Estimated total dynamical RAM >      52.23 MB

     Initial potential from superposition of free atoms

     starting charge       7.9989, renormalised to       8.0000
     Starting wfcs are    8 randomized atomic wfcs

     total cpu time spent up to now is        0.4 secs

     Self-consistent Calculation

     iteration #  1     ecut=    50.00 Ry     beta= 0.60
     Davidson diagonalization with overlap
     ethr =  1.00E-02,  avg # of iterations =  2.0

     Threshold (ethr) on eigenvalues was too large:
     Diagonalizing with lowered threshold

     Davidson diagonalization with overlap
     ethr =  6.22E-04,  avg # of iterations =  1.5

     total cpu time spent up to now is        0.7 secs

     total energy              =     -22.83788594 Ry
     estimated scf accuracy    <       0.05382584 Ry

     iteration #  2     ecut=    50.00 Ry     beta= 0.60
     Davidson diagonalization with overlap
     ethr =  6.73E-04,  avg # of iterations =  1.0

     total cpu time spent up to now is        0.8 secs

     total energy              =     -22.83851676 Ry
     estimated scf accuracy    <       0.00618366 Ry

     iteration #  3     ecut=    50.00 Ry     beta= 0.60
     Davidson diagonalization with overlap
     ethr =  7.73E-05,  avg # of iterations =  2.0

     total cpu time spent up to now is        1.0 secs

     total energy              =     -22.83946116 Ry
     estimated scf accuracy    <       0.00014124 Ry

     iteration #  4     ecut=    50.00 Ry     beta= 0.60
     Davidson diagonalization with overlap
     ethr =  1.77E-06,  avg # of iterations =  4.9

     total cpu time spent up to now is        1.2 secs

     total energy              =     -22.83958429 Ry
     estimated scf accuracy    <       0.00001778 Ry

     iteration #  5     ecut=    50.00 Ry     beta= 0.60
     Davidson diagonalization with overlap
     ethr =  2.22E-07,  avg # of iterations =  3.2

     total cpu time spent up to now is        1.4 secs

     End of self-consistent calculation

          k =-0.1250 0.1250 0.1250 (  1606 PWs)   bands (ev):

    -5.5499   4.6134   5.9239   5.9239

          k =-0.3750 0.3750-0.1250 (  1614 PWs)   bands (ev):

    -4.5034   1.5846   3.8999   5.4382

          k = 0.3750-0.3750 0.6250 (  1609 PWs)   bands (ev):

    -3.3347  -0.5400   3.9312   4.6489

          k = 0.1250-0.1250 0.3750 (  1605 PWs)   bands (ev):

    -5.0123   2.9871   4.8927   4.9695

          k =-0.1250 0.6250 0.1250 (  1616 PWs)   bands (ev):

    -3.9614   1.2701   3.5395   4.0022

          k = 0.6250-0.1250 0.8750 (  1613 PWs)   bands (ev):

    -2.2843  -0.7226   2.1483   3.2497

          k = 0.3750 0.1250 0.6250 (  1618 PWs)   bands (ev):

    -3.5353   0.3682   2.8888   4.2815

          k =-0.1250-0.8750 0.1250 (  1625 PWs)   bands (ev):

    -2.4608  -0.6204   2.7735   3.5271

          k =-0.3750 0.3750 0.3750 (  1610 PWs)   bands (ev):

    -4.0598   0.2616   5.1249   5.1249

          k = 0.3750-0.3750 1.1250 (  1611 PWs)   bands (ev):

    -2.8302  -0.4320   2.2163   4.3243

     highest occupied level (ev):     5.9239

!    total energy              =     -22.83959083 Ry
     estimated scf accuracy    <       0.00000049 Ry

     The total energy is the sum of the following terms:
     one-electron contribution =       5.17101674 Ry
     hartree contribution      =       1.10029400 Ry
     xc contribution           =     -12.30997196 Ry
     ewald contribution        =     -16.80092961 Ry

     convergence has been achieved in   5 iterations

     Writing all to output data dir /home/guest/Rishi-Tushar/silicon-scf/output/silicon.save/ :
     XML data file, charge density, pseudopotentials, collected wavefunctions

     init_run     :      0.32s CPU      0.32s WALL (       1 calls)
     electrons    :      1.04s CPU      0.92s WALL (       1 calls)

     Called by init_run:
     wfcinit      :      0.06s CPU      0.06s WALL (       1 calls)
     potinit      :      0.02s CPU      0.02s WALL (       1 calls)
     hinit0       :      0.21s CPU      0.21s WALL (       1 calls)

     Called by electrons:
     c_bands      :      0.62s CPU      0.54s WALL (       6 calls)
     sum_band     :      0.25s CPU      0.22s WALL (       6 calls)
     v_of_rho     :      0.06s CPU      0.06s WALL (       6 calls)
     newd         :      0.12s CPU      0.12s WALL (       6 calls)
     mix_rho      :      0.00s CPU      0.00s WALL (       6 calls)

     Called by c_bands:
     init_us_2    :      0.03s CPU      0.03s WALL (     130 calls)
     cegterg      :      0.56s CPU      0.49s WALL (      60 calls)

     Called by *egterg:
     cdiaghg      :      0.01s CPU      0.01s WALL (     196 calls)
     h_psi        :      0.55s CPU      0.48s WALL (     216 calls)
     s_psi        :      0.02s CPU      0.01s WALL (     216 calls)
     g_psi        :      0.00s CPU      0.00s WALL (     146 calls)

     Called by h_psi:
     h_psi:calbec :      0.03s CPU      0.03s WALL (     216 calls)
     vloc_psi     :      0.50s CPU      0.44s WALL (     216 calls)
                                        0.00s GPU  (     216 calls)
     add_vuspsi   :      0.02s CPU      0.01s WALL (     216 calls)

     General routines
     calbec       :      0.04s CPU      0.04s WALL (     276 calls)
     fft          :      0.10s CPU      0.09s WALL (      67 calls)
     ffts         :      0.00s CPU      0.00s WALL (       6 calls)
     fftw         :      0.53s CPU      0.47s WALL (    1770 calls)

     Parallel routines

     PWSCF        :      1.48s CPU      1.37s WALL


   This run was terminated on:  15:55:37  12Jun2026            

=------------------------------------------------------------------------------=
   JOB DONE.
=------------------------------------------------------------------------------=
